
                                 *****************
                                 * O   R   C   A *
                                 *****************

           --- An Ab Initio, DFT and Semiempirical electronic structure package ---

                  #######################################################
                  #                        -***-                        #
                  #          Department of theory and spectroscopy      #
                  #               Directorship: Frank Neese             #
                  #        Max Planck Institute fuer Kohlenforschung    #
                  #                Kaiser Wilhelm Platz 1               #
                  #                 D-45470 Muelheim/Ruhr               #
                  #                      Germany                        #
                  #                                                     #
                  #                  All rights reserved                #
                  #                        -***-                        #
                  #######################################################


                         Program Version 4.2.1 -  RELEASE  -


 With contributions from (in alphabetic order):
   Daniel Aravena         : Magnetic Suceptibility
   Michael Atanasov       : Ab Initio Ligand Field Theory (pilot matlab implementation)
   Alexander A. Auer      : GIAO ZORA, VPT2
   Ute Becker             : Parallelization
   Giovanni Bistoni       : ED, misc. LED, open-shell LED, HFLD
   Martin Brehm           : Molecular dynamics
   Dmytro Bykov           : SCF Hessian
   Vijay G. Chilkuri      : MRCI spin determinant printing, contributions to CSF-ICE
   Dipayan Datta          : RHF DLPNO-CCSD density
   Achintya Kumar Dutta   : EOM-CC, STEOM-CC
   Dmitry Ganyushin       : Spin-Orbit,Spin-Spin,Magnetic field MRCI
   Miquel Garcia          : C-PCM Hessian, Gaussian charge scheme
   Yang Guo               : DLPNO-NEVPT2, CIM, IAO-localization
   Andreas Hansen         : Spin unrestricted coupled pair/coupled cluster methods
   Benjamin Helmich-Paris : CASSCF linear response (MC-RPA)
   Lee Huntington         : MR-EOM, pCC
   Robert Izsak           : Overlap fitted RIJCOSX, COSX-SCS-MP3, EOM
   Christian Kollmar      : KDIIS, OOCD, Brueckner-CCSD(T), CCSD density
   Simone Kossmann        : Meta GGA functionals, TD-DFT gradient, OOMP2, MP2 Hessian
   Martin Krupicka        : AUTO-CI
   Lucas Lang             : DCDCAS
   Dagmar Lenk            : GEPOL surface, SMD
   Dimitrios Liakos       : Extrapolation schemes; Compound Job, initial MDCI parallelization
   Dimitrios Manganas     : Further ROCIS development; embedding schemes
   Dimitrios Pantazis     : SARC Basis sets
   Taras Petrenko         : DFT Hessian,TD-DFT gradient, ASA, ECA, R-Raman, ABS, FL, XAS/XES, NRVS
   Peter Pinski           : DLPNO-MP2, DLPNO-MP2 Gradient
   Christoph Reimann      : Effective Core Potentials
   Marius Retegan         : Local ZFS, SOC
   Christoph Riplinger    : Optimizer, TS searches, QM/MM, DLPNO-CCSD(T), (RO)-DLPNO pert. Triples
   Tobias Risthaus        : Range-separated hybrids, TD-DFT gradient, RPA, STAB
   Michael Roemelt        : Original ROCIS implementation
   Masaaki Saitow         : Open-shell DLPNO-CCSD energy and density
   Barbara Sandhoefer     : DKH picture change effects
   Avijit Sen             : IP-ROCIS
   Kantharuban Sivalingam : CASSCF convergence, NEVPT2, FIC-MRCI
   Bernardo de Souza      : ESD, SOC TD-DFT
   Georgi Stoychev        : AutoAux, RI-MP2 NMR
   Willem Van den Heuvel  : Paramagnetic NMR
   Boris Wezisla          : Elementary symmetry handling
   Frank Wennmohs         : Technical directorship


 We gratefully acknowledge several colleagues who have allowed us to
 interface, adapt or use parts of their codes:
   Stefan Grimme, W. Hujo, H. Kruse,             : VdW corrections, initial TS optimization,
                  C. Bannwarth                     DFT functionals, gCP, sTDA/sTD-DF
   Ed Valeev, F. Pavosevic, A. Kumar             : LibInt (2-el integral package), F12 methods
   Garnet Chan, S. Sharma, J. Yang, R. Olivares  : DMRG
   Ulf Ekstrom                                   : XCFun DFT Library
   Mihaly Kallay                                 : mrcc  (arbitrary order and MRCC methods)
   Andreas Klamt, Michael Diedenhofen            : otool_cosmo (COSMO solvation model)
   Jiri Pittner, Ondrej Demel                    : Mk-CCSD
   Frank Weinhold                                : gennbo (NPA and NBO analysis)
   Christopher J. Cramer and Donald G. Truhlar   : smd solvation model
   Lars Goerigk                                  : TD-DFT with DH, B97 family of functionals
   V. Asgeirsson, H. Jonsson                     : NEB implementation
   FAccTs GmbH                                   : IRC, NEB, NEB-TS, Multilevel, MM, QM/MM, CI optimization
   S Lehtola, MJT Oliveira, MAL Marques          : LibXC Library


 Your calculation uses the libint2 library for the computation of 2-el integrals
 For citations please refer to: http://libint.valeyev.net

 Your ORCA version has been built with support for libXC version: 4.2.3
 For citations please refer to: https://tddft.org/programs/libxc/

 This ORCA versions uses:
   CBLAS   interface :  Fast vector & matrix operations
   LAPACKE interface :  Fast linear algebra routines
   SCALAPACK package :  Parallel linear algebra routines


Your calculation utilizes the atom-pairwise dispersion correction
with the Becke-Johnson damping scheme (D3BJ)
Cite in your paper:
S.Grimme, S.Ehrlich, L.Goerigk, J Comput Chem, (2011), 32, 1456–1465 
S.Grimme, J.Antony, S.Ehrlich and H.Krieg, J.Chem.Phys., 132, (2010), 154104 
   

Your calculation utilizes the SMD solvation module
Please cite in your paper:
A.V. Marenich, C.J. Cramer, D.G. Truhlar J. Phys. Chem. B, 113, (2009), 6378 

----- Orbital basis set information -----
Your calculation utilizes the basis: def2-TZVP
   F. Weigend and R. Ahlrichs, Phys. Chem. Chem. Phys. 7, 3297 (2005).

----- AuxJ basis set information -----
Your calculation utilizes the auxiliary basis: def2/J
   F. Weigend, Phys. Chem. Chem. Phys. 8, 1057 (2006).

================================================================================
                                        WARNINGS
                       Please study these warnings very carefully!
================================================================================


WARNING: your system is open-shell and RHF/RKS was chosen
  ===> : WILL SWITCH to UHF/UKS


INFO   : the flag for use of LIBINT has been found!

================================================================================
                                       INPUT FILE
================================================================================
NAME = Cr2A_Solv2.inp
|  1> #
|  2> # ORCA calc attempt 1 :-)
|  3> #
|  4> ! BP86 D3BJ RIJCOSX def2-TZVP def2/J Grid6 FinalGrid6 MORead CPCM TightSCF 
|  5> %moinp "Cr2A_Tight.ges"
|  6> %cpcm
|  7> smd true
|  8> SMDsolvent "Toluene"
|  9> end
| 10> * xyz 1 4
| 11>   Cr  0.10144799434959     -2.18018613423685     -1.44724959538178
| 12>   O   -1.64016133391648     -2.22208642844092     -0.34569451628123
| 13>   N   0.41196163070254     -0.69395928856028     -0.24528364874298
| 14>   N   2.00959197371174     -1.94863883909233     -1.86804865611078
| 15>   C   -2.78486252267200     -2.90962053706220     -0.84050022468711
| 16>   C   -2.79678197046669     -4.29011197293731     -0.67955374903593
| 17>   C   -3.78503022154948     -2.21548299584227     -1.51459124765720
| 18>   C   -3.86062476550914     -5.01061452562067     -1.23153752786670
| 19>   H   -2.00169395363613     -4.78453515842185     -0.12035329971675
| 20>   C   -4.84488525914191     -2.95050765140527     -2.04858393942947
| 21>   H   -3.74101303957401     -1.13119473918277     -1.61171505978924
| 22>   C   -4.88076704671162     -4.34243220985051     -1.91202333041252
| 23>   H   -3.89316514629078     -6.09375489645344     -1.11644894957301
| 24>   H   -5.71118541360073     -4.90692427785236     -2.33534265248841
| 25>   H   -5.64232704779778     -2.43116279580468     -2.57976588213998
| 26>   C   -1.78908336048128     -1.10451803544352      0.51686694195038
| 27>   C   -0.64949790895446     -0.28369330699798      0.57066008152491
| 28>   C   -0.66933751036254      0.82766796311767      1.42391545819153
| 29>   C   -2.91796169110874     -0.87336055459970      1.28274645089380
| 30>   C   -2.91852275608065      0.24192473233208      2.12839203681394
| 31>   H   -3.77561234495212     -1.54191598343209      1.22690166124381
| 32>   C   -1.80429206974907      1.08419843392370      2.19297153360991
| 33>   H   0.19251216262255      1.49168960033490      1.48174402583840
| 34>   H   -3.79652097382438      0.44713935081409      2.73945419880493
| 35>   H   -1.81795737073580      1.95248260904556      2.85085823991480
| 36>   C   1.65478729870800     -0.20184206849547     -0.29797597005983
| 37>   C   2.53526350303830     -0.84587144127715     -1.16877496214519
| 38>   C   3.00884662811683     -2.43615553556914     -2.63974794338110
| 39>   C   4.18820939643496     -1.67996096009493     -2.45516491379123
| 40>   H   2.85470517502304     -3.29167319009914     -3.29313086121077
| 41>   C   3.89351888944621     -0.67590281339086     -1.53048555481523
| 42>   H   4.56682737565445      0.08616739509644     -1.14917533084533
| 43>   H   5.13834248527415     -1.85890570100360     -2.94814136368914
| 44>   H   1.95466779167100      0.64574245749044      0.32210255993880
| 45>   C   -0.66345853434921     -1.51591157752773     -3.14820252712893
| 46>   H   0.01182692551524     -0.84181650874107     -3.68663955453235
| 47>   H   -1.65766932692809     -1.07129067821733     -3.01450573969183
| 48>   H   -0.75511766187546     -2.47798173650133     -3.69642618812111
| 49> *
| 50> 
| 51>                          ****END OF INPUT****
================================================================================

                       ****************************
                       * Single Point Calculation *
                       ****************************

---------------------------------
CARTESIAN COORDINATES (ANGSTROEM)
---------------------------------
  Cr     0.101448   -2.180186   -1.447250
  O     -1.640161   -2.222086   -0.345695
  N      0.411962   -0.693959   -0.245284
  N      2.009592   -1.948639   -1.868049
  C     -2.784863   -2.909621   -0.840500
  C     -2.796782   -4.290112   -0.679554
  C     -3.785030   -2.215483   -1.514591
  C     -3.860625   -5.010615   -1.231538
  H     -2.001694   -4.784535   -0.120353
  C     -4.844885   -2.950508   -2.048584
  H     -3.741013   -1.131195   -1.611715
  C     -4.880767   -4.342432   -1.912023
  H     -3.893165   -6.093755   -1.116449
  H     -5.711185   -4.906924   -2.335343
  H     -5.642327   -2.431163   -2.579766
  C     -1.789083   -1.104518    0.516867
  C     -0.649498   -0.283693    0.570660
  C     -0.669338    0.827668    1.423915
  C     -2.917962   -0.873361    1.282746
  C     -2.918523    0.241925    2.128392
  H     -3.775612   -1.541916    1.226902
  C     -1.804292    1.084198    2.192972
  H      0.192512    1.491690    1.481744
  H     -3.796521    0.447139    2.739454
  H     -1.817957    1.952483    2.850858
  C      1.654787   -0.201842   -0.297976
  C      2.535264   -0.845871   -1.168775
  C      3.008847   -2.436156   -2.639748
  C      4.188209   -1.679961   -2.455165
  H      2.854705   -3.291673   -3.293131
  C      3.893519   -0.675903   -1.530486
  H      4.566827    0.086167   -1.149175
  H      5.138342   -1.858906   -2.948141
  H      1.954668    0.645742    0.322103
  C     -0.663459   -1.515912   -3.148203
  H      0.011827   -0.841817   -3.686640
  H     -1.657669   -1.071291   -3.014506
  H     -0.755118   -2.477982   -3.696426

----------------------------
CARTESIAN COORDINATES (A.U.)
----------------------------
  NO LB      ZA    FRAG     MASS         X           Y           Z
   0 Cr   24.0000    0    52.000    0.191709   -4.119955   -2.734905
   1 O     8.0000    0    15.999   -3.099456   -4.199135   -0.653268
   2 N     7.0000    0    14.007    0.778495   -1.311393   -0.463519
   3 N     7.0000    0    14.007    3.797578   -3.682394   -3.530100
   4 C     6.0000    0    12.011   -5.262627   -5.498386   -1.588315
   5 C     6.0000    0    12.011   -5.285152   -8.107137   -1.284170
   6 C     6.0000    0    12.011   -7.152671   -4.186656   -2.862163
   7 C     6.0000    0    12.011   -7.295524   -9.468689   -2.327269
   8 H     1.0000    0     1.008   -3.782653   -9.041461   -0.227435
   9 C     6.0000    0    12.011   -9.155506   -5.575651   -3.871263
  10 H     1.0000    0     1.008   -7.069490   -2.137648   -3.045700
  11 C     6.0000    0    12.011   -9.223313   -8.206008   -3.613200
  12 H     1.0000    0     1.008   -7.357016  -11.515528   -2.109783
  13 H     1.0000    0     1.008  -10.792576   -9.272743   -4.413158
  14 H     1.0000    0     1.008  -10.662453   -4.594232   -4.875051
  15 C     6.0000    0    12.011   -3.380878   -2.087237    0.976737
  16 C     6.0000    0    12.011   -1.227373   -0.536103    1.078391
  17 C     6.0000    0    12.011   -1.264865    1.564066    2.690810
  18 C     6.0000    0    12.011   -5.514148   -1.650412    2.424039
  19 C     6.0000    0    12.011   -5.515209    0.457171    4.022078
  20 H     1.0000    0     1.008   -7.134873   -2.913799    2.318508
  21 C     6.0000    0    12.011   -3.409618    2.048838    4.144116
  22 H     1.0000    0     1.008    0.363795    2.818885    2.800090
  23 H     1.0000    0     1.008   -7.174385    0.844971    5.176818
  24 H     1.0000    0     1.008   -3.435442    3.689657    5.387341
  25 C     6.0000    0    12.011    3.127095   -0.381426   -0.563093
  26 C     6.0000    0    12.011    4.790954   -1.598465   -2.208665
  27 C     6.0000    0    12.011    5.685896   -4.603667   -4.988401
  28 C     6.0000    0    12.011    7.914569   -3.174666   -4.639589
  29 H     1.0000    0     1.008    5.394611   -6.220361   -6.223115
  30 C     6.0000    0    12.011    7.357684   -1.277271   -2.892199
  31 H     1.0000    0     1.008    8.630053    0.162833   -2.171627
  32 H     1.0000    0     1.008    9.710060   -3.512823   -5.571180
  33 H     1.0000    0     1.008    3.693787    1.220276    0.608686
  34 C     6.0000    0    12.011   -1.253755   -2.864658   -5.949241
  35 H     1.0000    0     1.008    0.022350   -1.590803   -6.966739
  36 H     1.0000    0     1.008   -3.132541   -2.024446   -5.696590
  37 H     1.0000    0     1.008   -1.426966   -4.682707   -6.985233

--------------------------------
INTERNAL COORDINATES (ANGSTROEM)
--------------------------------
 Cr     0   0   0     0.000000000000     0.00000000     0.00000000
 O      1   0   0     2.061160420552     0.00000000     0.00000000
 N      1   2   0     1.936494537057    79.59363506     0.00000000
 N      1   2   3     1.967663448198   159.40514014    35.35807405
 C      2   1   3     1.424035340547   120.22095578   161.51461619
 C      5   2   1     1.389892961988   116.50006178    79.92614694
 C      5   2   1     1.391603772364   120.34606110   263.53411791
 C      6   5   2     1.398417503137   118.20048765   184.21201254
 H      6   5   2     1.090561499124   120.22676584     5.29405500
 C      7   5   2     1.395959218553   117.92581526   176.20281700
 H      7   5   2     1.089518962993   120.70073016   355.68326773
 C      8   6   5     1.396502348180   120.10217392   359.42069107
 H      8   6   5     1.089723506291   119.54742882   180.14182783
 H     12   8   6     1.089699595002   119.87573967   180.37980164
 H     10   7   5     1.089856294011   119.40995187   179.89164340
 C      2   1   3     1.419559492325   113.41420399     8.45118386
 C      3   1   2     1.400278079854   117.70971813   351.86101367
 C     17   3   1     1.401271644010   126.72108670   185.51199627
 C     16   2   1     1.383608141249   123.60501405   175.46970653
 C     19  16   2     1.399634967778   117.89781627   177.77364882
 H     19  16   2     1.088875404254   120.77517958   357.87034072
 C     18  17   3     1.394767715952   119.54716092   181.22806416
 H     18  17   3     1.089519957024   120.29750582     1.66825928
 H     20  19  16     1.089215715925   119.30180042   179.82766734
 H     22  18  17     1.089458153189   119.32447022   180.34833857
 C      3   1   2     1.337748661021   114.00748152   170.84745454
 C     26   3   1     1.395816271582   116.15973878   358.31907986
 C      4   1   2     1.353403924801   142.70669256   145.93982972
 C     28   4   1     1.413080914203   110.42398549   176.55368368
 H     28   4   1     1.087464611878   121.42083373   356.86543395
 C     29  28   4     1.396426573003   107.16615653   359.66260129
 H     31  29  28     1.086044569605   127.31444314   179.64807865
 H     29  28   4     1.085264892531   125.66963477   179.67834457
 H     26   3   1     1.092165382218   121.21270576   179.26004777
 C      1   2   3     1.979793817638    98.02039562   251.28419924
 H     35   1   2     1.095595293229   112.98833667   144.42895131
 H     35   1   2     1.097277392073   112.41671584    16.93749873
 H     35   1   2     1.111093861435    99.51249939   260.96702684

---------------------------
INTERNAL COORDINATES (A.U.)
---------------------------
 Cr     0   0   0     0.000000000000     0.00000000     0.00000000
 O      1   0   0     3.895028712921     0.00000000     0.00000000
 N      1   2   0     3.659444334872    79.59363506     0.00000000
 N      1   2   3     3.718345040822   159.40514014    35.35807405
 C      2   1   3     2.691036798659   120.22095578   161.51461619
 C      5   2   1     2.626517053623   116.50006178    79.92614694
 C      5   2   1     2.629750016700   120.34606110   263.53411791
 C      6   5   2     2.642626101810   118.20048765   184.21201254
 H      6   5   2     2.060862565542   120.22676584     5.29405500
 C      7   5   2     2.637980617187   117.92581526   176.20281700
 H      7   5   2     2.058892457771   120.70073016   355.68326773
 C      8   6   5     2.639006983438   120.10217392   359.42069107
 H      8   6   5     2.059278988586   119.54742882   180.14182783
 H     12   8   6     2.059233802798   119.87573967   180.37980164
 H     10   7   5     2.059529921011   119.40995187   179.89164340
 C      2   1   3     2.682578671302   113.41420399     8.45118386
 C      3   1   2     2.646142082257   117.70971813   351.86101367
 C     17   3   1     2.648019646409   126.72108670   185.51199627
 C     16   2   1     2.614640463624   123.60501405   175.46970653
 C     19  16   2     2.644926776560   117.89781627   177.77364882
 H     19  16   2     2.057676308004   120.77517958   357.87034072
 C     18  17   3     2.635729003584   119.54716092   181.22806416
 H     18  17   3     2.058894336217   120.29750582     1.66825928
 H     20  19  16     2.058319403860   119.30180042   179.82766734
 H     22  18  17     2.058777543896   119.32447022   180.34833857
 C      3   1   2     2.527978605349   114.00748152   170.84745454
 C     26   3   1     2.637710486562   116.15973878   358.31907986
 C      4   1   2     2.557562766449   142.70669256   145.93982972
 C     28   4   1     2.670335932914   110.42398549   176.55368368
 H     28   4   1     2.055010296780   121.42083373   356.86543395
 C     29  28   4     2.638863789105   107.16615653   359.66260129
 H     31  29  28     2.052326805785   127.31444314   179.64807865
 H     29  28   4     2.050853429643   125.66963477   179.67834457
 H     26   3   1     2.063893465342   121.21270576   179.26004777
 C      1   2   3     3.741268116966    98.02039562   251.28419924
 H     35   1   2     2.070375057816   112.98833667   144.42895131
 H     35   1   2     2.073553763962   112.41671584    16.93749873
 H     35   1   2     2.099663107193    99.51249939   260.96702684

---------------------
BASIS SET INFORMATION
---------------------
There are 5 groups of distinct atoms

 Group   1 Type Cr  : 17s11p7d1f contracted to 6s4p4d1f pattern {842111/6311/4111/1}
 Group   2 Type O   : 11s6p2d1f contracted to 5s3p2d1f pattern {62111/411/11/1}
 Group   3 Type N   : 11s6p2d1f contracted to 5s3p2d1f pattern {62111/411/11/1}
 Group   4 Type C   : 11s6p2d1f contracted to 5s3p2d1f pattern {62111/411/11/1}
 Group   5 Type H   : 5s1p contracted to 3s1p pattern {311/1}

Atom   0Cr   basis set group =>   1
Atom   1O    basis set group =>   2
Atom   2N    basis set group =>   3
Atom   3N    basis set group =>   3
Atom   4C    basis set group =>   4
Atom   5C    basis set group =>   4
Atom   6C    basis set group =>   4
Atom   7C    basis set group =>   4
Atom   8H    basis set group =>   5
Atom   9C    basis set group =>   4
Atom  10H    basis set group =>   5
Atom  11C    basis set group =>   4
Atom  12H    basis set group =>   5
Atom  13H    basis set group =>   5
Atom  14H    basis set group =>   5
Atom  15C    basis set group =>   4
Atom  16C    basis set group =>   4
Atom  17C    basis set group =>   4
Atom  18C    basis set group =>   4
Atom  19C    basis set group =>   4
Atom  20H    basis set group =>   5
Atom  21C    basis set group =>   4
Atom  22H    basis set group =>   5
Atom  23H    basis set group =>   5
Atom  24H    basis set group =>   5
Atom  25C    basis set group =>   4
Atom  26C    basis set group =>   4
Atom  27C    basis set group =>   4
Atom  28C    basis set group =>   4
Atom  29H    basis set group =>   5
Atom  30C    basis set group =>   4
Atom  31H    basis set group =>   5
Atom  32H    basis set group =>   5
Atom  33H    basis set group =>   5
Atom  34C    basis set group =>   4
Atom  35H    basis set group =>   5
Atom  36H    basis set group =>   5
Atom  37H    basis set group =>   5
---------------------------------
AUXILIARY/J BASIS SET INFORMATION
---------------------------------
There are 5 groups of distinct atoms

 Group   1 Type Cr  : 19s5p5d3f3g contracted to 8s5p5d2f3g pattern {121111111/11111/11111/21/111}
 Group   2 Type O   : 12s5p4d2f1g contracted to 6s4p3d1f1g pattern {711111/2111/211/2/1}
 Group   3 Type N   : 12s5p4d2f1g contracted to 6s4p3d1f1g pattern {711111/2111/211/2/1}
 Group   4 Type C   : 12s5p4d2f1g contracted to 6s4p3d1f1g pattern {711111/2111/211/2/1}
 Group   5 Type H   : 5s2p1d contracted to 3s1p1d pattern {311/2/1}

Atom   0Cr   basis set group =>   1
Atom   1O    basis set group =>   2
Atom   2N    basis set group =>   3
Atom   3N    basis set group =>   3
Atom   4C    basis set group =>   4
Atom   5C    basis set group =>   4
Atom   6C    basis set group =>   4
Atom   7C    basis set group =>   4
Atom   8H    basis set group =>   5
Atom   9C    basis set group =>   4
Atom  10H    basis set group =>   5
Atom  11C    basis set group =>   4
Atom  12H    basis set group =>   5
Atom  13H    basis set group =>   5
Atom  14H    basis set group =>   5
Atom  15C    basis set group =>   4
Atom  16C    basis set group =>   4
Atom  17C    basis set group =>   4
Atom  18C    basis set group =>   4
Atom  19C    basis set group =>   4
Atom  20H    basis set group =>   5
Atom  21C    basis set group =>   4
Atom  22H    basis set group =>   5
Atom  23H    basis set group =>   5
Atom  24H    basis set group =>   5
Atom  25C    basis set group =>   4
Atom  26C    basis set group =>   4
Atom  27C    basis set group =>   4
Atom  28C    basis set group =>   4
Atom  29H    basis set group =>   5
Atom  30C    basis set group =>   4
Atom  31H    basis set group =>   5
Atom  32H    basis set group =>   5
Atom  33H    basis set group =>   5
Atom  34C    basis set group =>   4
Atom  35H    basis set group =>   5
Atom  36H    basis set group =>   5
Atom  37H    basis set group =>   5
------------------------------------------------------------------------------
                           ORCA GTO INTEGRAL CALCULATION
                           -- RI-GTO INTEGRALS CHOSEN --
------------------------------------------------------------------------------

                         BASIS SET STATISTICS AND STARTUP INFO

Gaussian basis set:
 # of primitive gaussian shells          ...  552
 # of primitive gaussian functions       ... 1186
 # of contracted shells                  ...  310
 # of contracted basis functions         ...  792
 Highest angular momentum                ...    3
 Maximum contraction depth               ...    8
Auxiliary gaussian basis set:
 # of primitive gaussian shells          ...  667
 # of primitive gaussian functions       ... 1833
 # of contracted shells                  ...  418
 # of contracted aux-basis functions     ... 1294
 Highest angular momentum                ...    4
 Maximum contraction depth               ...   12
Ratio of auxiliary to basis functions    ...  1.63
Integral package used                  ... LIBINT
 One Electron integrals                  ... done
 Ordering auxiliary basis shells         ... done
 Integral threshhold             Thresh  ...  2.500e-11
 Primitive cut-off               TCut    ...  2.500e-12
 Pre-screening matrix                    ... done
 Shell pair data                         ... 
 Ordering of the shell pairs             ... done (   0.004 sec) 34813 of 48205 pairs
 Determination of significant pairs      ... done (   0.000 sec)
 Creation of shell pair data             ... done (   0.002 sec)
 Storage of shell pair data              ... done (   0.003 sec)
 Shell pair data done in (   0.010 sec)
 Computing two index integrals           ... done
 Cholesky decomposition of the V-matrix  ... done


Timings:
 Total evaluation time                   ...   0.506 sec (  0.008 min)
 One electron matrix time                ...   0.163 sec (  0.003 min) = 32.3%
 Schwartz matrix evaluation time         ...   0.285 sec (  0.005 min) = 56.4%
 Two index repulsion integral time       ...   0.017 sec (  0.000 min) =  3.5%
 Cholesky decomposition of V             ...   0.019 sec (  0.000 min) =  3.7%
 Three index repulsion integral time     ...   0.000 sec (  0.000 min) =  0.0%

-------------------------------------------------------------------------------
                                 ORCA SCF
-------------------------------------------------------------------------------

------------
SCF SETTINGS
------------
Hamiltonian:
 Density Functional     Method          .... DFT(GTOs)
 Exchange Functional    Exchange        .... B88
   X-Alpha parameter    XAlpha          ....  0.666667
   Becke's b parameter  XBeta           ....  0.004200
 Correlation Functional Correlation     .... P86
 LDA part of GGA corr.  LDAOpt          .... PW91-LDA
 Gradients option       PostSCFGGA      .... off
   Density functional embedding theory  .... OFF
 RI-approximation to the Coulomb term is turned on
   Number of auxiliary basis functions  .... 1294
   RIJ-COSX (HFX calculated with COS-X)).... on


General Settings:
 Integral files         IntName         .... Cr2A_Solv2
 Hartree-Fock type      HFTyp           .... UHF
 Total Charge           Charge          ....    1
 Multiplicity           Mult            ....    4
 Number of Electrons    NEL             ....  169
 Basis Dimension        Dim             ....  792
 Nuclear Repulsion      ENuc            ....   2078.0967084046 Eh

Convergence Acceleration:
 DIIS                   CNVDIIS         .... on
   Start iteration      DIISMaxIt       ....    12
   Startup error        DIISStart       ....  0.200000
   # of expansion vecs  DIISMaxEq       ....     5
   Bias factor          DIISBfac        ....   1.050
   Max. coefficient     DIISMaxC        ....  10.000
 Newton-Raphson         CNVNR           .... off
 SOSCF                  CNVSOSCF        .... off
 Level Shifting         CNVShift        .... on
   Level shift para.    LevelShift      ....    0.2500
   Turn off err/grad.   ShiftErr        ....    0.0010
 Zerner damping         CNVZerner       .... off
 Static damping         CNVDamp         .... on
   Fraction old density DampFac         ....    0.7000
   Max. Damping (<1)    DampMax         ....    0.9800
   Min. Damping (>=0)   DampMin         ....    0.0000
   Turn off err/grad.   DampErr         ....    0.1000
 Fernandez-Rico         CNVRico         .... off

SCF Procedure:
 Maximum # iterations   MaxIter         ....   125
 SCF integral mode      SCFMode         .... Direct
   Integral package                     .... LIBINT
 Reset frequency        DirectResetFreq ....    20
 Integral Threshold     Thresh          ....  2.500e-11 Eh
 Primitive CutOff       TCut            ....  2.500e-12 Eh

Convergence Tolerance:
 Convergence Check Mode ConvCheckMode   .... Total+1el-Energy
 Convergence forced     ConvForced      .... 0
 Energy Change          TolE            ....  1.000e-08 Eh
 1-El. energy change                    ....  1.000e-05 Eh
 DIIS Error             TolErr          ....  5.000e-07


Diagonalization of the overlap matrix:
Smallest eigenvalue                        ... 6.118e-06
Time for diagonalization                   ...    0.060 sec
Threshold for overlap eigenvalues          ... 1.000e-08
Number of eigenvalues below threshold      ... 0
Time for construction of square roots      ...    0.040 sec
Total time needed                          ...    0.101 sec

---------------------
INITIAL GUESS: MOREAD
---------------------
Guess MOs are being read from file: Cr2A_Tight.ges
Input Geometry matches current geometry (good)
Input basis set matches current basis set (good)
MOs were renormalized
MOs were reorthogonalized (Cholesky)
                      ------------------
                      INITIAL GUESS DONE (   0.3 sec)
                      ------------------
-------------------
DFT GRID GENERATION
-------------------

General Integration Accuracy     IntAcc      ...  5.340
Radial Grid Type                 RadialGrid  ... Gauss-Chebyshev
Angular Grid (max. acc.)         AngularGrid ... Lebedev-590
Angular grid pruning method      GridPruning ... 3 (G Style)
Weight generation scheme         WeightScheme... Becke
Basis function cutoff            BFCut       ...    1.0000e-11
Integration weight cutoff        WCut        ...    1.0000e-14
Grids for H and He will be reduced by one unit

# of grid points (after initial pruning)     ... 546492 (   0.3 sec)
# of grid points (after weights+screening)   ... 474626 (   2.5 sec)
nearest neighbour list constructed           ...    0.0 sec
Grid point re-assignment to atoms done       ...    0.0 sec
Grid point division into batches done        ...    3.1 sec
Reduced shell lists constructed in    7.9 sec

Total number of grid points                  ...   474626
Total number of batches                      ...     7439
Average number of points per batch           ...       63
Average number of grid points per atom       ...    12490
Average number of shells per batch           ...   122.85 (39.63%)
Average number of basis functions per batch  ...   304.32 (38.42%)
Average number of large shells per batch     ...    80.17 (65.26%)
Average number of large basis fcns per batch ...   200.58 (65.91%)
Maximum spatial batch extension              ...  22.02, 22.60, 23.30 au
Average spatial batch extension              ...   1.61,  1.63,  1.66 au

Time for grid setup =   10.776 sec

--------------------
COSX GRID GENERATION
--------------------

General Integration Accuracy     IntAcc      ...  3.340
Radial Grid Type                 RadialGrid  ... Gauss-Chebyshev
Angular Grid (max. acc.)         AngularGrid ... Lebedev-50
Angular grid pruning method      GridPruning ... 3 (G Style)
Weight generation scheme         WeightScheme... Becke
Basis function cutoff            BFCut       ...    1.0000e-11
Integration weight cutoff        WCut        ...    1.0000e-14
Grids for H and He will be reduced by one unit

# of grid points (after initial pruning)     ...  18314 (   0.0 sec)
# of grid points (after weights+screening)   ...  16566 (   0.1 sec)
nearest neighbour list constructed           ...    0.0 sec
Grid point re-assignment to atoms done       ...    0.0 sec
Grid point division into batches done        ...    0.0 sec
Reduced shell lists constructed in    0.2 sec

Total number of grid points                  ...    16566
Total number of batches                      ...      277
Average number of points per batch           ...       59
Average number of grid points per atom       ...      436
Average number of shells per batch           ...   155.87 (50.28%)
Average number of basis functions per batch  ...   395.18 (49.90%)
Average number of large shells per batch     ...   105.41 (67.63%)
Average number of large basis fcns per batch ...   269.22 (68.13%)
Maximum spatial batch extension              ...  17.91, 19.12, 19.36 au
Average spatial batch extension              ...   4.44,  4.72,  5.17 au

Overlap Fitting                  UseSFitting ... on
Constructing numerical overlap ... done (      0.2 sec)
Inverting numerical overlap    ... done (      0.0 sec)
Obtaining analytic overlap     ... done (      0.0 sec)
Final contraction and storage  ... done (      0.0 sec)


General Integration Accuracy     IntAcc      ...  3.670
Radial Grid Type                 RadialGrid  ... Gauss-Chebyshev
Angular Grid (max. acc.)         AngularGrid ... Lebedev-50
Angular grid pruning method      GridPruning ... 3 (G Style)
Weight generation scheme         WeightScheme... Becke
Basis function cutoff            BFCut       ...    1.0000e-11
Integration weight cutoff        WCut        ...    1.0000e-14
Grids for H and He will be reduced by one unit

# of grid points (after initial pruning)     ...  23080 (   0.0 sec)
# of grid points (after weights+screening)   ...  20817 (   0.1 sec)
nearest neighbour list constructed           ...    0.0 sec
Grid point re-assignment to atoms done       ...    0.0 sec
Grid point division into batches done        ...    0.0 sec
Reduced shell lists constructed in    0.3 sec

Total number of grid points                  ...    20817
Total number of batches                      ...      341
Average number of points per batch           ...       61
Average number of grid points per atom       ...      548
Average number of shells per batch           ...   152.25 (49.11%)
Average number of basis functions per batch  ...   385.29 (48.65%)
Average number of large shells per batch     ...   102.31 (67.20%)
Average number of large basis fcns per batch ...   260.77 (67.68%)
Maximum spatial batch extension              ...  19.47, 22.63, 22.63 au
Average spatial batch extension              ...   4.10,  4.41,  4.74 au

Overlap Fitting                  UseSFitting ... on
Constructing numerical overlap ... done (      0.3 sec)
Inverting numerical overlap    ... done (      0.0 sec)
Obtaining analytic overlap     ... done (      0.0 sec)
Final contraction and storage  ... done (      0.0 sec)


General Integration Accuracy     IntAcc      ...  4.010
Radial Grid Type                 RadialGrid  ... Gauss-Chebyshev
Angular Grid (max. acc.)         AngularGrid ... Lebedev-110
Angular grid pruning method      GridPruning ... 3 (G Style)
Weight generation scheme         WeightScheme... Becke
Basis function cutoff            BFCut       ...    1.0000e-11
Integration weight cutoff        WCut        ...    1.0000e-14
Grids for H and He will be reduced by one unit

# of grid points (after initial pruning)     ...  44074 (   0.0 sec)
# of grid points (after weights+screening)   ...  39522 (   0.2 sec)
nearest neighbour list constructed           ...    0.0 sec
Grid point re-assignment to atoms done       ...    0.0 sec
Grid point division into batches done        ...    0.0 sec
Reduced shell lists constructed in    0.5 sec

Total number of grid points                  ...    39522
Total number of batches                      ...      636
Average number of points per batch           ...       62
Average number of grid points per atom       ...     1040
Average number of shells per batch           ...   145.39 (46.90%)
Average number of basis functions per batch  ...   366.25 (46.24%)
Average number of large shells per batch     ...    97.43 (67.02%)
Average number of large basis fcns per batch ...   247.24 (67.51%)
Maximum spatial batch extension              ...  21.07, 20.88, 21.11 au
Average spatial batch extension              ...   3.50,  3.68,  3.86 au

Overlap Fitting                  UseSFitting ... on
Constructing numerical overlap ... done (      0.4 sec)
Inverting numerical overlap    ... done (      0.0 sec)
Obtaining analytic overlap     ... done (      0.0 sec)
Final contraction and storage  ... done (      0.0 sec)

Time for X-Grid setup             =    2.435 sec

--------------------
CPCM SOLVATION MODEL
--------------------
CPCM parameters:
  Epsilon                                         ...       2.3741
  Refrac                                          ...       1.3300
  Rsolv                                           ...       1.3000
  Surface type                                    ...    GEPOL SES
  Epsilon function type                           ...         CPCM
Solvent:                                     ... TOLUENE
SMD-CDS solvent descriptors:
  Soln                                       ...    1.4961
  Soln25                                     ...    1.4936
  Sola                                       ...    0.0000
  Solb                                       ...    0.1400
  Solg                                       ...   40.2000
  Solc                                       ...    0.8570
  Solh                                       ...    0.0000
Radii:
 Radius for Cr used is    3.5716 Bohr (=   1.8900 Ang.)
 Radius for O  used is    4.3350 Bohr (=   2.2940 Ang.)
 Radius for N  used is    3.5716 Bohr (=   1.8900 Ang.)
 Radius for C  used is    3.4960 Bohr (=   1.8500 Ang.)
 Radius for H  used is    2.2677 Bohr (=   1.2000 Ang.)
Calculating surface                               ...        done! (  0.0s)
GEPOL surface points                              ...         1457
GEPOL Volume                                      ...    2178.3951
GEPOL Surface-area                                ...    1106.5861
Calculating surface distance matrix               ...        done! (  0.0s)
Performing Cholesky decomposition & store         ...        done! (  0.0s)
Overall time for CPCM initialization              ...                 0.1s
--------------
SCF ITERATIONS
--------------
ITER       Energy         Delta-E        Max-DP      RMS-DP      [F,P]     Damp
               ***  Starting incremental Fock matrix formation  ***
  0  -1925.0977801274   0.000000000000 0.00487503  0.00005260  0.0047475 0.7000
  1  -1925.0982636506  -0.000483523198 0.00448165  0.00004990  0.0033929 0.7000
                               ***Turning on DIIS***
  2  -1925.0985466070  -0.000282956403 0.01108760  0.00012825  0.0027310 0.0000
  3  -1925.0991381996  -0.000591592574 0.00264102  0.00001944  0.0025224 0.0000
  4  -1925.0992002699  -0.000062070314 0.00235876  0.00001537  0.0008274 0.0000
  5  -1925.0992174206  -0.000017150696 0.00060261  0.00000487  0.0006332 0.0000
  6  -1925.0992191692  -0.000001748610 0.00027520  0.00000235  0.0006513 0.0000
  7  -1925.0992210782  -0.000001909020 0.00020634  0.00000160  0.0001934 0.0000
  8  -1925.0992207564   0.000000321811 0.00016860  0.00000103  0.0002815 0.0000
  9  -1925.0992211207  -0.000000364296 0.00010859  0.00000077  0.0001608 0.0000
 10  -1925.0992210594   0.000000061262 0.00011275  0.00000110  0.0000587 0.0000
 11  -1925.0992211064  -0.000000046974 0.00008700  0.00000097  0.0000093 0.0000
 12  -1925.0992210673   0.000000039092 0.00012716  0.00000099  0.0000045 0.0000
 13  -1925.0992210518   0.000000015550 0.00005692  0.00000043  0.0000025 0.0000
 14  -1925.0992210292   0.000000022539 0.00010998  0.00000055  0.0000031 0.0000
 15  -1925.0992210025   0.000000026748 0.00008804  0.00000043  0.0000013 0.0000
 16  -1925.0992209904   0.000000012103 0.00004065  0.00000022  0.0000020 0.0000
                            ***DIIS convergence achieved***

               *****************************************************
               *                     SUCCESS                       *
               *           SCF CONVERGED AFTER  17 CYCLES          *
               *****************************************************

Setting up the final grid:

General Integration Accuracy     IntAcc      ...  5.340
Radial Grid Type                 RadialGrid  ... Gauss-Chebyshev
Angular Grid (max. acc.)         AngularGrid ... Lebedev-590
Angular grid pruning method      GridPruning ... 3 (G Style)
Weight generation scheme         WeightScheme... Becke
Basis function cutoff            BFCut       ...    1.0000e-11
Integration weight cutoff        WCut        ...    1.0000e-14
Grids for H and He will be reduced by one unit

# of grid points (after initial pruning)     ... 546492 (   0.2 sec)
# of grid points (after weights+screening)   ... 474626 (   2.5 sec)
nearest neighbour list constructed           ...    0.0 sec
Grid point re-assignment to atoms done       ...    0.0 sec
Grid point division into batches done        ...    3.1 sec
Reduced shell lists constructed in    8.1 sec

Total number of grid points                  ...   474626
Total number of batches                      ...     7439
Average number of points per batch           ...       63
Average number of grid points per atom       ...    12490
Average number of shells per batch           ...   122.85 (39.63%)
Average number of basis functions per batch  ...   304.32 (38.42%)
Average number of large shells per batch     ...    80.17 (65.26%)
Average number of large basis fcns per batch ...   200.58 (65.91%)
Maximum spatial batch extension              ...  22.02, 22.60, 23.30 au
Average spatial batch extension              ...   1.61,  1.63,  1.66 au

Final grid set up in   10.8 sec
Final integration                            ... done (  22.8 sec)
Change in XC energy                          ...    -0.000000000
Integrated number of electrons               ...   169.000041782
Previous integrated no of electrons          ...   169.000041779

SMD CDS free energy correction energy :                -7.93960     Kcal/mol
Total Energy after SMD CDS correction =             -1925.111873525 Eh

----------------
TOTAL SCF ENERGY
----------------

Total Energy       :        -1925.11187353 Eh          -52384.95728 eV

Components:
Nuclear Repulsion  :         2078.09670840 Eh           56547.88627 eV
Electronic Energy  :        -4003.20858193 Eh         -108932.84355 eV
One Electron Energy:        -6740.66447317 Eh         -183422.80535 eV
Two Electron Energy:         2737.45589124 Eh           74489.96180 eV
CPCM Dielectric    :           -0.04876287 Eh              -1.32691 eV
SMD CDS (Gcds)     :           -0.01265255 Eh              -0.34429 eV

Virial components:
Potential Energy   :        -3844.17025725 Eh         -104605.19073 eV
Kinetic Energy     :         1919.05838373 Eh           52220.23345 eV
Virial Ratio       :            2.00315441


DFT components:
N(Alpha)           :       86.000020723543 electrons
N(Beta)            :       83.000021058242 electrons
N(Total)           :      169.000041781784 electrons
E(X)               :     -168.305710443612 Eh       
E(C)               :       -6.485367662679 Eh       
E(XC)              :     -174.791078106291 Eh       
DFET-embed. en.    :        0.000000000000 Eh       
CPCM Solvation Model Properties:
Surface-charge          :           -1.05886248
Charge-correction       :            0.00412985 Eh               0.11238 eV
Free-energy (cav+disp)  :            0.00544530 Eh               0.14817 eV
Corrected G(solv)       :        -1925.10229838 Eh          -52384.69673 eV

---------------
SCF CONVERGENCE
---------------

  Last Energy change         ...    1.9028e-08  Tolerance :   1.0000e-08
  Last MAX-Density change    ...    7.2000e-05  Tolerance :   1.0000e-07
  Last RMS-Density change    ...    4.4596e-07  Tolerance :   5.0000e-09
  Last DIIS Error            ...    5.3008e-07  Tolerance :   5.0000e-07

             **** THE GBW FILE WAS UPDATED (Cr2A_Solv2.gbw) ****
             **** DENSITY FILE WAS UPDATED (Cr2A_Solv2.scfp) ****
             **** ENERGY FILE WAS UPDATED (Cr2A_Solv2.en.tmp) ****
----------------------
UHF SPIN CONTAMINATION
----------------------

Warning: in a DFT calculation there is little theoretical justification to 
         calculate <S**2> as in Hartree-Fock theory. We will do it anyways
         but you should keep in mind that the values have only limited relevance

Expectation value of <S**2>     :     3.803729
Ideal value S*(S+1) for S=1.5   :     3.750000
Deviation                       :     0.053729

             **** THE GBW FILE WAS UPDATED (Cr2A_Solv2.gbw) ****
             **** DENSITY FILE WAS UPDATED (Cr2A_Solv2.scfp) ****
----------------
ORBITAL ENERGIES
----------------
                 SPIN UP ORBITALS
  NO   OCC          E(Eh)            E(eV) 
   0   1.0000    -214.637803     -5840.5915 
   1   1.0000     -24.369318      -663.1229 
   2   1.0000     -20.734893      -564.2251 
   3   1.0000     -20.732222      -564.1524 
   4   1.0000     -20.729513      -564.0787 
   5   1.0000     -18.924742      -514.9684 
   6   1.0000     -14.106678      -383.8622 
   7   1.0000     -14.078802      -383.1037 
   8   1.0000     -10.035867      -273.0898 
   9   1.0000     -10.032870      -273.0083 
  10   1.0000     -10.025194      -272.7994 
  11   1.0000     -10.013292      -272.4755 
  12   1.0000      -9.990476      -271.8547 
  13   1.0000      -9.987846      -271.7831 
  14   1.0000      -9.969356      -271.2800 
  15   1.0000      -9.968977      -271.2697 
  16   1.0000      -9.968939      -271.2686 
  17   1.0000      -9.968052      -271.2445 
  18   1.0000      -9.963354      -271.1167 
  19   1.0000      -9.963158      -271.1113 
  20   1.0000      -9.961754      -271.0731 
  21   1.0000      -9.961431      -271.0643 
  22   1.0000      -9.959688      -271.0169 
  23   1.0000      -9.958394      -270.9817 
  24   1.0000      -9.949370      -270.7361 
  25   1.0000      -9.936007      -270.3725 
  26   1.0000      -2.850570       -77.5679 
  27   1.0000      -1.847413       -50.2707 
  28   1.0000      -1.841840       -50.1190 
  29   1.0000      -1.833754       -49.8990 
  30   1.0000      -1.084995       -29.5242 
  31   1.0000      -0.955784       -26.0082 
  32   1.0000      -0.928598       -25.2684 
  33   1.0000      -0.854932       -23.2639 
  34   1.0000      -0.840944       -22.8832 
  35   1.0000      -0.779282       -21.2053 
  36   1.0000      -0.760837       -20.7034 
  37   1.0000      -0.752889       -20.4872 
  38   1.0000      -0.745980       -20.2991 
  39   1.0000      -0.734010       -19.9734 
  40   1.0000      -0.715307       -19.4645 
  41   1.0000      -0.665111       -18.0986 
  42   1.0000      -0.661772       -18.0077 
  43   1.0000      -0.650707       -17.7066 
  44   1.0000      -0.621804       -16.9201 
  45   1.0000      -0.606637       -16.5074 
  46   1.0000      -0.595569       -16.2063 
  47   1.0000      -0.583210       -15.8700 
  48   1.0000      -0.561904       -15.2902 
  49   1.0000      -0.550679       -14.9847 
  50   1.0000      -0.540920       -14.7192 
  51   1.0000      -0.526808       -14.3352 
  52   1.0000      -0.519237       -14.1292 
  53   1.0000      -0.505602       -13.7581 
  54   1.0000      -0.496660       -13.5148 
  55   1.0000      -0.473153       -12.8751 
  56   1.0000      -0.469445       -12.7742 
  57   1.0000      -0.461551       -12.5594 
  58   1.0000      -0.457672       -12.4539 
  59   1.0000      -0.451128       -12.2758 
  60   1.0000      -0.445839       -12.1319 
  61   1.0000      -0.438944       -11.9443 
  62   1.0000      -0.436473       -11.8770 
  63   1.0000      -0.417133       -11.3508 
  64   1.0000      -0.413356       -11.2480 
  65   1.0000      -0.408985       -11.1291 
  66   1.0000      -0.407977       -11.1016 
  67   1.0000      -0.405915       -11.0455 
  68   1.0000      -0.401778       -10.9329 
  69   1.0000      -0.394892       -10.7455 
  70   1.0000      -0.383089       -10.4244 
  71   1.0000      -0.379412       -10.3243 
  72   1.0000      -0.378319       -10.2946 
  73   1.0000      -0.371301       -10.1036 
  74   1.0000      -0.368805       -10.0357 
  75   1.0000      -0.362141        -9.8544 
  76   1.0000      -0.320509        -8.7215 
  77   1.0000      -0.305989        -8.3264 
  78   1.0000      -0.303252        -8.2519 
  79   1.0000      -0.299354        -8.1458 
  80   1.0000      -0.298315        -8.1176 
  81   1.0000      -0.286056        -7.7840 
  82   1.0000      -0.278284        -7.5725 
  83   1.0000      -0.272613        -7.4182 
  84   1.0000      -0.254813        -6.9338 
  85   1.0000      -0.239953        -6.5295 
  86   0.0000      -0.186736        -5.0814 
  87   0.0000      -0.173463        -4.7202 
  88   0.0000      -0.141831        -3.8594 
  89   0.0000      -0.113237        -3.0813 
  90   0.0000      -0.109474        -2.9789 
  91   0.0000      -0.097685        -2.6581 
  92   0.0000      -0.090918        -2.4740 
  93   0.0000      -0.072734        -1.9792 
  94   0.0000      -0.042280        -1.1505 
  95   0.0000      -0.031423        -0.8551 
  96   0.0000      -0.015163        -0.4126 
  97   0.0000      -0.013235        -0.3602 
  98   0.0000      -0.010528        -0.2865 
  99   0.0000      -0.001429        -0.0389 
 100   0.0000       0.003871         0.1053 
 101   0.0000       0.011756         0.3199 
 102   0.0000       0.016683         0.4540 
 103   0.0000       0.020547         0.5591 
 104   0.0000       0.028050         0.7633 
 105   0.0000       0.030964         0.8426 
 106   0.0000       0.034395         0.9359 
 107   0.0000       0.039293         1.0692 
 108   0.0000       0.044726         1.2171 
 109   0.0000       0.046839         1.2746 
 110   0.0000       0.047505         1.2927 
 111   0.0000       0.050677         1.3790 
 112   0.0000       0.054728         1.4892 
 113   0.0000       0.055727         1.5164 
 114   0.0000       0.064770         1.7625 
 115   0.0000       0.070161         1.9092 
 116   0.0000       0.070528         1.9192 
 117   0.0000       0.075150         2.0449 
 118   0.0000       0.084139         2.2896 
 119   0.0000       0.089841         2.4447 
 120   0.0000       0.095358         2.5948 
 121   0.0000       0.097518         2.6536 
 122   0.0000       0.104523         2.8442 
 123   0.0000       0.110188         2.9984 
 124   0.0000       0.116131         3.1601 
 125   0.0000       0.119186         3.2432 
 126   0.0000       0.125204         3.4070 
 127   0.0000       0.128427         3.4947 
 128   0.0000       0.129314         3.5188 
 129   0.0000       0.137262         3.7351 
 130   0.0000       0.138128         3.7587 
 131   0.0000       0.148020         4.0278 
 132   0.0000       0.151860         4.1323 
 133   0.0000       0.152856         4.1594 
 134   0.0000       0.154952         4.2165 
 135   0.0000       0.161443         4.3931 
 136   0.0000       0.163966         4.4618 
 137   0.0000       0.166540         4.5318 
 138   0.0000       0.174528         4.7492 
 139   0.0000       0.177553         4.8315 
 140   0.0000       0.181469         4.9380 
 141   0.0000       0.187793         5.1101 
 142   0.0000       0.190172         5.1748 
 143   0.0000       0.192800         5.2464 
 144   0.0000       0.193762         5.2725 
 145   0.0000       0.196886         5.3576 
 146   0.0000       0.202156         5.5010 
 147   0.0000       0.205832         5.6010 
 148   0.0000       0.208956         5.6860 
 149   0.0000       0.216299         5.8858 
 150   0.0000       0.223989         6.0951 
 151   0.0000       0.227463         6.1896 
 152   0.0000       0.228039         6.2053 
 153   0.0000       0.234119         6.3707 
 154   0.0000       0.239114         6.5066 
 155   0.0000       0.245771         6.6878 
 156   0.0000       0.247236         6.7276 
 157   0.0000       0.250923         6.8280 
 158   0.0000       0.257049         6.9947 
 159   0.0000       0.259277         7.0553 
 160   0.0000       0.265031         7.2119 
 161   0.0000       0.269995         7.3469 
 162   0.0000       0.272788         7.4229 
 163   0.0000       0.281700         7.6655 
 164   0.0000       0.283176         7.7056 
 165   0.0000       0.286004         7.7826 
 166   0.0000       0.292461         7.9583 
 167   0.0000       0.299257         8.1432 
 168   0.0000       0.300894         8.1877 
 169   0.0000       0.303837         8.2678 
 170   0.0000       0.311873         8.4865 
 171   0.0000       0.313211         8.5229 
 172   0.0000       0.315559         8.5868 
 173   0.0000       0.320585         8.7236 
 174   0.0000       0.328676         8.9437 
 175   0.0000       0.332820         9.0565 
 176   0.0000       0.335118         9.1190 
 177   0.0000       0.336498         9.1566 
 178   0.0000       0.338907         9.2221 
 179   0.0000       0.342671         9.3246 
 180   0.0000       0.350024         9.5246 
 181   0.0000       0.354363         9.6427 
 182   0.0000       0.357742         9.7346 
 183   0.0000       0.361950         9.8491 
 184   0.0000       0.364134         9.9086 
 185   0.0000       0.365614         9.9489 
 186   0.0000       0.371263        10.1026 
 187   0.0000       0.377161        10.2631 
 188   0.0000       0.378212        10.2917 
 189   0.0000       0.383367        10.4319 
 190   0.0000       0.386746        10.5239 
 191   0.0000       0.393391        10.7047 
 192   0.0000       0.397526        10.8172 
 193   0.0000       0.399598        10.8736 
 194   0.0000       0.404537        11.0080 
 195   0.0000       0.406591        11.0639 
 196   0.0000       0.412749        11.2315 
 197   0.0000       0.414705        11.2847 
 198   0.0000       0.416478        11.3329 
 199   0.0000       0.420310        11.4372 
 200   0.0000       0.423547        11.5253 
 201   0.0000       0.429488        11.6870 
 202   0.0000       0.433753        11.8030 
 203   0.0000       0.438005        11.9187 
 204   0.0000       0.443587        12.0706 
 205   0.0000       0.448619        12.2075 
 206   0.0000       0.452442        12.3116 
 207   0.0000       0.458317        12.4714 
 208   0.0000       0.464030        12.6269 
 209   0.0000       0.473572        12.8866 
 210   0.0000       0.474482        12.9113 
 211   0.0000       0.485273        13.2049 
 212   0.0000       0.488346        13.2886 
 213   0.0000       0.499833        13.6012 
 214   0.0000       0.511516        13.9191 
 215   0.0000       0.514113        13.9897 
 216   0.0000       0.519602        14.1391 
 217   0.0000       0.523611        14.2482 
 218   0.0000       0.527060        14.3420 
 219   0.0000       0.538120        14.6430 
 220   0.0000       0.540887        14.7183 
 221   0.0000       0.547746        14.9049 
 222   0.0000       0.560244        15.2450 
 223   0.0000       0.564131        15.3508 
 224   0.0000       0.570096        15.5131 
 225   0.0000       0.574885        15.6434 
 226   0.0000       0.578807        15.7501 
 227   0.0000       0.579990        15.7823 
 228   0.0000       0.587298        15.9812 
 229   0.0000       0.590947        16.0805 
 230   0.0000       0.598576        16.2881 
 231   0.0000       0.600268        16.3341 
 232   0.0000       0.607462        16.5299 
 233   0.0000       0.612693        16.6722 
 234   0.0000       0.620574        16.8867 
 235   0.0000       0.630027        17.1439 
 236   0.0000       0.631279        17.1780 
 237   0.0000       0.636000        17.3064 
 238   0.0000       0.644585        17.5400 
 239   0.0000       0.646743        17.5988 
 240   0.0000       0.652005        17.7420 
 241   0.0000       0.664390        18.0790 
 242   0.0000       0.665623        18.1125 
 243   0.0000       0.674100        18.3432 
 244   0.0000       0.674805        18.3624 
 245   0.0000       0.681755        18.5515 
 246   0.0000       0.683850        18.6085 
 247   0.0000       0.693403        18.8685 
 248   0.0000       0.699565        19.0361 
 249   0.0000       0.706970        19.2376 
 250   0.0000       0.713721        19.4213 
 251   0.0000       0.718115        19.5409 
 252   0.0000       0.724315        19.7096 
 253   0.0000       0.732374        19.9289 
 254   0.0000       0.734869        19.9968 
 255   0.0000       0.737387        20.0653 
 256   0.0000       0.741474        20.1765 
 257   0.0000       0.756344        20.5812 
 258   0.0000       0.765418        20.8281 
 259   0.0000       0.773728        21.0542 
 260   0.0000       0.787784        21.4367 
 261   0.0000       0.794643        21.6233 
 262   0.0000       0.796621        21.6772 
 263   0.0000       0.802380        21.8339 
 264   0.0000       0.812934        22.1210 
 265   0.0000       0.821192        22.3458 
 266   0.0000       0.833494        22.6805 
 267   0.0000       0.835757        22.7421 
 268   0.0000       0.841764        22.9056 
 269   0.0000       0.847351        23.0576 
 270   0.0000       0.850601        23.1460 
 271   0.0000       0.860347        23.4112 
 272   0.0000       0.866477        23.5780 
 273   0.0000       0.874553        23.7978 
 274   0.0000       0.885366        24.0920 
 275   0.0000       0.888963        24.1899 
 276   0.0000       0.892097        24.2752 
 277   0.0000       0.902129        24.5482 
 278   0.0000       0.912637        24.8341 
 279   0.0000       0.917203        24.9584 
 280   0.0000       0.923494        25.1295 
 281   0.0000       0.932171        25.3657 
 282   0.0000       0.950733        25.8708 
 283   0.0000       0.953562        25.9477 
 284   0.0000       0.963193        26.2098 
 285   0.0000       0.969557        26.3830 
 286   0.0000       0.971578        26.4380 
 287   0.0000       0.977412        26.5967 
 288   0.0000       0.993965        27.0472 
 289   0.0000       0.994438        27.0600 
 290   0.0000       1.003627        27.3101 
 291   0.0000       1.006455        27.3870 
 292   0.0000       1.019168        27.7330 
 293   0.0000       1.034495        28.1500 
 294   0.0000       1.036462        28.2036 
 295   0.0000       1.043059        28.3831 
 296   0.0000       1.049246        28.5514 
 297   0.0000       1.055435        28.7198 
 298   0.0000       1.058875        28.8135 
 299   0.0000       1.059427        28.8285 
 300   0.0000       1.070790        29.1377 
 301   0.0000       1.079372        29.3712 
 302   0.0000       1.092641        29.7323 
 303   0.0000       1.103801        30.0360 
 304   0.0000       1.113119        30.2895 
 305   0.0000       1.114505        30.3272 
 306   0.0000       1.116515        30.3819 
 307   0.0000       1.126598        30.6563 
 308   0.0000       1.127784        30.6886 
 309   0.0000       1.130775        30.7699 
 310   0.0000       1.136692        30.9310 
 311   0.0000       1.141980        31.0749 
 312   0.0000       1.151803        31.3422 
 313   0.0000       1.159308        31.5464 
 314   0.0000       1.161281        31.6001 
 315   0.0000       1.171474        31.8774 
 316   0.0000       1.175023        31.9740 
 317   0.0000       1.181264        32.1438 
 318   0.0000       1.183900        32.2156 
 319   0.0000       1.198244        32.6059 
 320   0.0000       1.204973        32.7890 
 321   0.0000       1.228480        33.4286 
 322   0.0000       1.234368        33.5889 
 323   0.0000       1.236823        33.6557 
 324   0.0000       1.251975        34.0680 
 325   0.0000       1.260885        34.3104 
 326   0.0000       1.274056        34.6688 
 327   0.0000       1.284892        34.9637 
 328   0.0000       1.290589        35.1187 
 329   0.0000       1.298297        35.3284 
 330   0.0000       1.308736        35.6125 
 331   0.0000       1.316852        35.8334 
 332   0.0000       1.322047        35.9747 
 333   0.0000       1.325850        36.0782 
 334   0.0000       1.336172        36.3591 
 335   0.0000       1.339503        36.4497 
 336   0.0000       1.344547        36.5870 
 337   0.0000       1.355053        36.8729 
 338   0.0000       1.362459        37.0744 
 339   0.0000       1.367560        37.2132 
 340   0.0000       1.375088        37.4180 
 341   0.0000       1.386100        37.7177 
 342   0.0000       1.390667        37.8420 
 343   0.0000       1.392037        37.8793 
 344   0.0000       1.402019        38.1509 
 345   0.0000       1.405562        38.2473 
 346   0.0000       1.412946        38.4482 
 347   0.0000       1.421267        38.6746 
 348   0.0000       1.423598        38.7381 
 349   0.0000       1.430878        38.9362 
 350   0.0000       1.438149        39.1340 
 351   0.0000       1.442801        39.2606 
 352   0.0000       1.453834        39.5608 
 353   0.0000       1.457632        39.6642 
 354   0.0000       1.462811        39.8051 
 355   0.0000       1.474063        40.1113 
 356   0.0000       1.474884        40.1336 
 357   0.0000       1.483444        40.3666 
 358   0.0000       1.488131        40.4941 
 359   0.0000       1.497846        40.7585 
 360   0.0000       1.508716        41.0542 
 361   0.0000       1.512829        41.1662 
 362   0.0000       1.516919        41.2775 
 363   0.0000       1.519487        41.3473 
 364   0.0000       1.528947        41.6048 
 365   0.0000       1.535854        41.7927 
 366   0.0000       1.539274        41.8858 
 367   0.0000       1.545916        42.0665 
 368   0.0000       1.549606        42.1669 
 369   0.0000       1.555997        42.3408 
 370   0.0000       1.563569        42.5469 
 371   0.0000       1.571054        42.7506 
 372   0.0000       1.574382        42.8411 
 373   0.0000       1.582086        43.0507 
 374   0.0000       1.585594        43.1462 
 375   0.0000       1.595923        43.4273 
 376   0.0000       1.600842        43.5611 
 377   0.0000       1.605670        43.6925 
 378   0.0000       1.610709        43.8296 
 379   0.0000       1.614922        43.9443 
 380   0.0000       1.625679        44.2370 
 381   0.0000       1.629821        44.3497 
 382   0.0000       1.636466        44.5305 
 383   0.0000       1.639732        44.6194 
 384   0.0000       1.655545        45.0497 
 385   0.0000       1.662266        45.2325 
 386   0.0000       1.671731        45.4901 
 387   0.0000       1.684982        45.8507 
 388   0.0000       1.686982        45.9051 
 389   0.0000       1.694352        46.1057 
 390   0.0000       1.708058        46.4786 
 391   0.0000       1.715175        46.6723 
 392   0.0000       1.722317        46.8666 
 393   0.0000       1.738793        47.3150 
 394   0.0000       1.742994        47.4293 
 395   0.0000       1.762369        47.9565 
 396   0.0000       1.767794        48.1041 
 397   0.0000       1.785157        48.5766 
 398   0.0000       1.801258        49.0147 
 399   0.0000       1.810444        49.2647 
 400   0.0000       1.818353        49.4799 
 401   0.0000       1.836268        49.9674 
 402   0.0000       1.839128        50.0452 
 403   0.0000       1.845392        50.2157 
 404   0.0000       1.860232        50.6195 
 405   0.0000       1.870967        50.9116 
 406   0.0000       1.880107        51.1603 
 407   0.0000       1.890161        51.4339 
 408   0.0000       1.894158        51.5426 
 409   0.0000       1.904813        51.8326 
 410   0.0000       1.915520        52.1240 
 411   0.0000       1.925418        52.3933 
 412   0.0000       1.931456        52.5576 
 413   0.0000       1.935062        52.6557 
 414   0.0000       1.938970        52.7621 
 415   0.0000       1.949905        53.0596 
 416   0.0000       1.956373        53.2356 
 417   0.0000       1.961422        53.3730 
 418   0.0000       1.974142        53.7191 
 419   0.0000       1.987344        54.0784 
 420   0.0000       1.990343        54.1600 
 421   0.0000       1.993471        54.2451 
 422   0.0000       2.003981        54.5311 
 423   0.0000       2.013608        54.7931 
 424   0.0000       2.020940        54.9926 
 425   0.0000       2.026379        55.1406 
 426   0.0000       2.033155        55.3250 
 427   0.0000       2.040679        55.5297 
 428   0.0000       2.048899        55.7534 
 429   0.0000       2.059689        56.0470 
 430   0.0000       2.068116        56.2763 
 431   0.0000       2.082301        56.6623 
 432   0.0000       2.091070        56.9009 
 433   0.0000       2.103068        57.2274 
 434   0.0000       2.106502        57.3208 
 435   0.0000       2.111367        57.4532 
 436   0.0000       2.119260        57.6680 
 437   0.0000       2.134845        58.0921 
 438   0.0000       2.140007        58.2325 
 439   0.0000       2.148913        58.4749 
 440   0.0000       2.163803        58.8801 
 441   0.0000       2.166111        58.9429 
 442   0.0000       2.181538        59.3627 
 443   0.0000       2.193360        59.6844 
 444   0.0000       2.209045        60.1112 
 445   0.0000       2.221482        60.4496 
 446   0.0000       2.240765        60.9743 
 447   0.0000       2.245138        61.0933 
 448   0.0000       2.251562        61.2681 
 449   0.0000       2.268238        61.7219 
 450   0.0000       2.274195        61.8840 
 451   0.0000       2.289744        62.3071 
 452   0.0000       2.291230        62.3475 
 453   0.0000       2.304753        62.7155 
 454   0.0000       2.315017        62.9948 
 455   0.0000       2.322510        63.1987 
 456   0.0000       2.328640        63.3655 
 457   0.0000       2.346785        63.8593 
 458   0.0000       2.355135        64.0865 
 459   0.0000       2.370517        64.5050 
 460   0.0000       2.371351        64.5277 
 461   0.0000       2.390327        65.0441 
 462   0.0000       2.399703        65.2992 
 463   0.0000       2.407328        65.5067 
 464   0.0000       2.415579        65.7312 
 465   0.0000       2.422436        65.9178 
 466   0.0000       2.424990        65.9873 
 467   0.0000       2.441265        66.4302 
 468   0.0000       2.445950        66.5577 
 469   0.0000       2.449785        66.6620 
 470   0.0000       2.458409        66.8967 
 471   0.0000       2.463250        67.0285 
 472   0.0000       2.474530        67.3354 
 473   0.0000       2.480495        67.4977 
 474   0.0000       2.489270        67.7365 
 475   0.0000       2.492567        67.8262 
 476   0.0000       2.494743        67.8854 
 477   0.0000       2.499962        68.0274 
 478   0.0000       2.500461        68.0410 
 479   0.0000       2.503454        68.1225 
 480   0.0000       2.512606        68.3715 
 481   0.0000       2.516567        68.4793 
 482   0.0000       2.525860        68.7321 
 483   0.0000       2.529212        68.8234 
 484   0.0000       2.532128        68.9027 
 485   0.0000       2.542659        69.1893 
 486   0.0000       2.545153        69.2571 
 487   0.0000       2.551324        69.4250 
 488   0.0000       2.554099        69.5006 
 489   0.0000       2.569531        69.9205 
 490   0.0000       2.572158        69.9920 
 491   0.0000       2.574748        70.0625 
 492   0.0000       2.580206        70.2110 
 493   0.0000       2.589703        70.4694 
 494   0.0000       2.595728        70.6333 
 495   0.0000       2.602525        70.8183 
 496   0.0000       2.608562        70.9826 
 497   0.0000       2.611651        71.0666 
 498   0.0000       2.624863        71.4262 
 499   0.0000       2.630254        71.5728 
 500   0.0000       2.634759        71.6954 
 501   0.0000       2.640530        71.8525 
 502   0.0000       2.646059        72.0029 
 503   0.0000       2.655650        72.2639 
 504   0.0000       2.661400        72.4204 
 505   0.0000       2.670522        72.6686 
 506   0.0000       2.673706        72.7552 
 507   0.0000       2.678056        72.8736 
 508   0.0000       2.683715        73.0276 
 509   0.0000       2.690892        73.2229 
 510   0.0000       2.701753        73.5184 
 511   0.0000       2.704937        73.6051 
 512   0.0000       2.716732        73.9260 
 513   0.0000       2.719355        73.9974 
 514   0.0000       2.722901        74.0939 
 515   0.0000       2.726693        74.1971 
 516   0.0000       2.736139        74.4541 
 517   0.0000       2.737073        74.4795 
 518   0.0000       2.742422        74.6251 
 519   0.0000       2.747430        74.7614 
 520   0.0000       2.758353        75.0586 
 521   0.0000       2.769106        75.3512 
 522   0.0000       2.777981        75.5927 
 523   0.0000       2.785709        75.8030 
 524   0.0000       2.790746        75.9401 
 525   0.0000       2.799586        76.1806 
 526   0.0000       2.804108        76.3037 
 527   0.0000       2.804448        76.3129 
 528   0.0000       2.811528        76.5056 
 529   0.0000       2.827319        76.9353 
 530   0.0000       2.832390        77.0733 
 531   0.0000       2.840305        77.2886 
 532   0.0000       2.843605        77.3784 
 533   0.0000       2.848629        77.5151 
 534   0.0000       2.860845        77.8476 
 535   0.0000       2.863493        77.9196 
 536   0.0000       2.868658        78.0601 
 537   0.0000       2.893011        78.7228 
 538   0.0000       2.897323        78.8402 
 539   0.0000       2.907360        79.1133 
 540   0.0000       2.912620        79.2564 
 541   0.0000       2.917511        79.3895 
 542   0.0000       2.924189        79.5712 
 543   0.0000       2.927692        79.6665 
 544   0.0000       2.931175        79.7613 
 545   0.0000       2.950560        80.2888 
 546   0.0000       2.958214        80.4971 
 547   0.0000       2.962842        80.6230 
 548   0.0000       2.971163        80.8495 
 549   0.0000       2.977509        81.0221 
 550   0.0000       2.980216        81.0958 
 551   0.0000       2.981125        81.1205 
 552   0.0000       2.990758        81.3827 
 553   0.0000       2.998532        81.5942 
 554   0.0000       3.000565        81.6495 
 555   0.0000       3.003364        81.7257 
 556   0.0000       3.010637        81.9236 
 557   0.0000       3.014405        82.0261 
 558   0.0000       3.019656        82.1690 
 559   0.0000       3.023371        82.2701 
 560   0.0000       3.028099        82.3988 
 561   0.0000       3.033221        82.5381 
 562   0.0000       3.037746        82.6613 
 563   0.0000       3.049139        82.9713 
 564   0.0000       3.052065        83.0509 
 565   0.0000       3.058355        83.2221 
 566   0.0000       3.074824        83.6702 
 567   0.0000       3.076436        83.7141 
 568   0.0000       3.079893        83.8082 
 569   0.0000       3.098965        84.3271 
 570   0.0000       3.104426        84.4757 
 571   0.0000       3.114403        84.7472 
 572   0.0000       3.119903        84.8969 
 573   0.0000       3.124515        85.0224 
 574   0.0000       3.126317        85.0714 
 575   0.0000       3.130804        85.1935 
 576   0.0000       3.134371        85.2906 
 577   0.0000       3.140196        85.4491 
 578   0.0000       3.143573        85.5410 
 579   0.0000       3.150867        85.7394 
 580   0.0000       3.155372        85.8620 
 581   0.0000       3.167658        86.1964 
 582   0.0000       3.178687        86.4965 
 583   0.0000       3.184101        86.6438 
 584   0.0000       3.186834        86.7182 
 585   0.0000       3.195431        86.9521 
 586   0.0000       3.198346        87.0314 
 587   0.0000       3.211411        87.3869 
 588   0.0000       3.212465        87.4156 
 589   0.0000       3.216917        87.5368 
 590   0.0000       3.227521        87.8253 
 591   0.0000       3.235473        88.0417 
 592   0.0000       3.236275        88.0635 
 593   0.0000       3.242609        88.2359 
 594   0.0000       3.246487        88.3414 
 595   0.0000       3.252912        88.5162 
 596   0.0000       3.256266        88.6075 
 597   0.0000       3.262274        88.7710 
 598   0.0000       3.266122        88.8757 
 599   0.0000       3.272028        89.0364 
 600   0.0000       3.276929        89.1698 
 601   0.0000       3.286327        89.4255 
 602   0.0000       3.290200        89.5309 
 603   0.0000       3.295079        89.6637 
 604   0.0000       3.301104        89.8276 
 605   0.0000       3.309027        90.0432 
 606   0.0000       3.311428        90.1085 
 607   0.0000       3.318462        90.2999 
 608   0.0000       3.326279        90.5126 
 609   0.0000       3.332070        90.6702 
 610   0.0000       3.336082        90.7794 
 611   0.0000       3.345059        91.0237 
 612   0.0000       3.350605        91.1746 
 613   0.0000       3.356788        91.3428 
 614   0.0000       3.358397        91.3866 
 615   0.0000       3.363864        91.5354 
 616   0.0000       3.375406        91.8495 
 617   0.0000       3.376166        91.8702 
 618   0.0000       3.385646        92.1281 
 619   0.0000       3.392711        92.3204 
 620   0.0000       3.396641        92.4273 
 621   0.0000       3.401714        92.5653 
 622   0.0000       3.414033        92.9006 
 623   0.0000       3.436985        93.5251 
 624   0.0000       3.442197        93.6669 
 625   0.0000       3.449926        93.8772 
 626   0.0000       3.462975        94.2323 
 627   0.0000       3.469108        94.3992 
 628   0.0000       3.480338        94.7048 
 629   0.0000       3.503365        95.3314 
 630   0.0000       3.510203        95.5175 
 631   0.0000       3.516199        95.6806 
 632   0.0000       3.522692        95.8573 
 633   0.0000       3.533408        96.1489 
 634   0.0000       3.557013        96.7913 
 635   0.0000       3.567334        97.0721 
 636   0.0000       3.569560        97.1327 
 637   0.0000       3.581500        97.4576 
 638   0.0000       3.595037        97.8259 
 639   0.0000       3.602900        98.0399 
 640   0.0000       3.616194        98.4016 
 641   0.0000       3.628391        98.7335 
 642   0.0000       3.650979        99.3482 
 643   0.0000       3.676420       100.0405 
 644   0.0000       3.684873       100.2705 
 645   0.0000       3.706362       100.8552 
 646   0.0000       3.723465       101.3206 
 647   0.0000       3.751416       102.0812 
 648   0.0000       3.764574       102.4393 
 649   0.0000       3.771171       102.6188 
 650   0.0000       3.787982       103.0762 
 651   0.0000       3.796535       103.3090 
 652   0.0000       3.816537       103.8532 
 653   0.0000       3.834959       104.3545 
 654   0.0000       3.837296       104.4181 
 655   0.0000       3.847385       104.6927 
 656   0.0000       3.854908       104.8974 
 657   0.0000       3.870471       105.3209 
 658   0.0000       3.882638       105.6519 
 659   0.0000       3.898952       106.0959 
 660   0.0000       3.916227       106.5660 
 661   0.0000       3.925150       106.8088 
 662   0.0000       3.940567       107.2283 
 663   0.0000       3.949957       107.4838 
 664   0.0000       3.958548       107.7176 
 665   0.0000       3.961251       107.7911 
 666   0.0000       3.998239       108.7976 
 667   0.0000       4.006055       109.0103 
 668   0.0000       4.018328       109.3443 
 669   0.0000       4.028546       109.6223 
 670   0.0000       4.034573       109.7863 
 671   0.0000       4.041591       109.9773 
 672   0.0000       4.042636       110.0057 
 673   0.0000       4.051867       110.2569 
 674   0.0000       4.056170       110.3740 
 675   0.0000       4.059074       110.4530 
 676   0.0000       4.069390       110.7337 
 677   0.0000       4.079005       110.9954 
 678   0.0000       4.084234       111.1377 
 679   0.0000       4.088515       111.2542 
 680   0.0000       4.093749       111.3966 
 681   0.0000       4.101774       111.6149 
 682   0.0000       4.108181       111.7893 
 683   0.0000       4.115265       111.9820 
 684   0.0000       4.122599       112.1816 
 685   0.0000       4.131546       112.4251 
 686   0.0000       4.139464       112.6406 
 687   0.0000       4.151950       112.9803 
 688   0.0000       4.156362       113.1004 
 689   0.0000       4.180036       113.7446 
 690   0.0000       4.197625       114.2232 
 691   0.0000       4.213843       114.6645 
 692   0.0000       4.218866       114.8012 
 693   0.0000       4.230265       115.1113 
 694   0.0000       4.236632       115.2846 
 695   0.0000       4.279965       116.4638 
 696   0.0000       4.286323       116.6368 
 697   0.0000       4.332558       117.8949 
 698   0.0000       4.342937       118.1773 
 699   0.0000       4.363347       118.7327 
 700   0.0000       4.406528       119.9077 
 701   0.0000       4.432222       120.6069 
 702   0.0000       4.435454       120.6948 
 703   0.0000       4.451351       121.1274 
 704   0.0000       4.471629       121.6792 
 705   0.0000       4.484272       122.0232 
 706   0.0000       4.491348       122.2158 
 707   0.0000       4.506742       122.6347 
 708   0.0000       4.546099       123.7056 
 709   0.0000       4.552393       123.8769 
 710   0.0000       4.563969       124.1919 
 711   0.0000       4.571251       124.3901 
 712   0.0000       4.582140       124.6864 
 713   0.0000       4.612098       125.5016 
 714   0.0000       4.623854       125.8215 
 715   0.0000       4.642671       126.3335 
 716   0.0000       4.644253       126.3766 
 717   0.0000       4.678203       127.3004 
 718   0.0000       4.690043       127.6226 
 719   0.0000       4.700082       127.8957 
 720   0.0000       4.717072       128.3581 
 721   0.0000       4.728795       128.6771 
 722   0.0000       4.742188       129.0415 
 723   0.0000       4.755601       129.4065 
 724   0.0000       4.781283       130.1053 
 725   0.0000       4.810231       130.8930 
 726   0.0000       4.820488       131.1722 
 727   0.0000       4.865696       132.4023 
 728   0.0000       4.902127       133.3937 
 729   0.0000       4.908077       133.5556 
 730   0.0000       4.916493       133.7846 
 731   0.0000       4.933501       134.2474 
 732   0.0000       4.943350       134.5154 
 733   0.0000       4.981298       135.5480 
 734   0.0000       4.989031       135.7584 
 735   0.0000       4.998543       136.0173 
 736   0.0000       5.043649       137.2447 
 737   0.0000       5.062023       137.7446 
 738   0.0000       5.084964       138.3689 
 739   0.0000       5.112177       139.1094 
 740   0.0000       5.116731       139.2333 
 741   0.0000       5.143569       139.9636 
 742   0.0000       5.170538       140.6975 
 743   0.0000       5.180171       140.9596 
 744   0.0000       5.213271       141.8603 
 745   0.0000       5.225102       142.1822 
 746   0.0000       5.231399       142.3536 
 747   0.0000       5.258180       143.0823 
 748   0.0000       5.277721       143.6141 
 749   0.0000       5.303746       144.3223 
 750   0.0000       5.383001       146.4789 
 751   0.0000       5.399384       146.9247 
 752   0.0000       5.460240       148.5807 
 753   0.0000       5.475946       149.0081 
 754   0.0000       5.512054       149.9906 
 755   0.0000       5.593325       152.2021 
 756   0.0000       5.635478       153.3491 
 757   0.0000       5.662267       154.0781 
 758   0.0000       5.676584       154.4677 
 759   0.0000       5.748024       156.4117 
 760   0.0000       5.839731       158.9071 
 761   0.0000       5.868457       159.6888 
 762   0.0000       5.918349       161.0465 
 763   0.0000       6.035679       164.2392 
 764   0.0000       6.199216       168.6892 
 765   0.0000       6.361057       173.0932 
 766   0.0000       6.513850       177.2509 
 767   0.0000       6.705686       182.4710 
 768   0.0000       6.745791       183.5623 
 769   0.0000       7.045480       191.7173 
 770   0.0000       7.254716       197.4109 
 771   0.0000      21.793141       593.0215 
 772   0.0000      21.875657       595.2669 
 773   0.0000      21.908845       596.1700 
 774   0.0000      22.025491       599.3441 
 775   0.0000      22.230851       604.9322 
 776   0.0000      22.234890       605.0421 
 777   0.0000      22.255247       605.5961 
 778   0.0000      22.262579       605.7956 
[...]
      dxz     :     0.000032
      dyz     :    -0.000013
      dx2y2   :     0.000272
      dxy     :     0.000061
      f0      :    -0.000000  f :     0.000022
      f+1     :    -0.000002
      f-1     :    -0.000001
      f+2     :     0.000013
      f-2     :    -0.000006
      f+3     :     0.000014
      f-3     :     0.000004
  7 C s       :    -0.000031  s :    -0.000031
      pz      :    -0.000427  p :    -0.000602
      px      :    -0.000116
      py      :    -0.000059
      dz2     :     0.000252  d :     0.000580
      dxz     :     0.000078
      dyz     :     0.000016
      dx2y2   :     0.000213
      dxy     :     0.000021
      f0      :     0.000002  f :     0.000062
      f+1     :     0.000007
      f-1     :     0.000021
      f+2     :     0.000002
      f-2     :     0.000009
      f+3     :     0.000005
      f-3     :     0.000016
  8 H s       :     0.000144  s :     0.000144
      pz      :     0.000055  p :     0.000081
      px      :     0.000027
      py      :    -0.000001
  9 C s       :     0.000013  s :     0.000013
      pz      :    -0.000032  p :    -0.000151
      px      :    -0.000115
      py      :    -0.000004
      dz2     :     0.000058  d :     0.000532
      dxz     :     0.000124
      dyz     :     0.000217
      dx2y2   :     0.000066
      dxy     :     0.000068
      f0      :     0.000004  f :     0.000049
      f+1     :     0.000011
      f-1     :     0.000008
      f+2     :     0.000010
      f-2     :     0.000004
      f+3     :     0.000010
      f-3     :     0.000003
 10 H s       :     0.000027  s :     0.000027
      pz      :     0.000052  p :     0.000075
      px      :     0.000011
      py      :     0.000012
 11 C s       :     0.000063  s :     0.000063
      pz      :     0.001576  p :     0.002159
      px      :     0.000538
      py      :     0.000046
      dz2     :     0.000022  d :    -0.000013
      dxz     :     0.000004
      dyz     :    -0.000017
      dx2y2   :     0.000001
      dxy     :    -0.000023
      f0      :    -0.000003  f :    -0.000017
      f+1     :    -0.000002
      f-1     :    -0.000004
      f+2     :    -0.000003
      f-2     :    -0.000002
      f+3     :    -0.000002
      f-3     :    -0.000001
 12 H s       :     0.000029  s :     0.000029
      pz      :    -0.000011  p :    -0.000017
      px      :    -0.000003
      py      :    -0.000003
 13 H s       :    -0.000062  s :    -0.000062
      pz      :     0.000041  p :     0.000059
      px      :     0.000016
      py      :     0.000003
 14 H s       :     0.000060  s :     0.000060
      pz      :     0.000000  p :    -0.000001
      px      :    -0.000003
      py      :     0.000001
 15 C s       :     0.000376  s :     0.000376
      pz      :    -0.000005  p :    -0.000466
      px      :    -0.000266
      py      :    -0.000195
      dz2     :     0.000140  d :     0.000600
      dxz     :     0.000148
      dyz     :     0.000001
      dx2y2   :     0.000285
      dxy     :     0.000027
      f0      :     0.000016  f :     0.000111
      f+1     :     0.000030
      f-1     :     0.000010
      f+2     :     0.000010
      f-2     :    -0.000026
      f+3     :     0.000051
      f-3     :     0.000019
 16 C s       :     0.000761  s :     0.000761
      pz      :     0.002508  p :     0.005456
      px      :     0.001602
      py      :     0.001346
      dz2     :    -0.001655  d :    -0.004659
      dxz     :    -0.000060
      dyz     :    -0.001109
      dx2y2   :    -0.001015
      dxy     :    -0.000821
      f0      :    -0.000062  f :    -0.000660
      f+1     :    -0.000117
      f-1     :    -0.000034
      f+2     :    -0.000045
      f-2     :    -0.000186
      f+3     :    -0.000199
      f-3     :    -0.000017
 17 C s       :    -0.000237  s :    -0.000237
      pz      :    -0.002097  p :    -0.004786
      px      :    -0.000663
      py      :    -0.002026
      dz2     :     0.000434  d :     0.000776
      dxz     :     0.000015
      dyz     :     0.000032
      dx2y2   :     0.000026
      dxy     :     0.000269
      f0      :     0.000009  f :     0.000078
      f+1     :     0.000014
      f-1     :     0.000028
      f+2     :     0.000006
      f-2     :     0.000004
      f+3     :     0.000004
      f-3     :     0.000012
 18 C s       :     0.000054  s :     0.000054
      pz      :     0.001269  p :     0.001671
      px      :     0.000080
      py      :     0.000322
      dz2     :    -0.000219  d :    -0.000296
      dxz     :    -0.000006
      dyz     :     0.000018
      dx2y2   :    -0.000017
      dxy     :    -0.000072
      f0      :    -0.000000  f :    -0.000053
      f+1     :    -0.000016
      f-1     :    -0.000012
      f+2     :    -0.000003
      f-2     :    -0.000003
      f+3     :    -0.000006
      f-3     :    -0.000012
 19 C s       :    -0.000064  s :    -0.000064
      pz      :    -0.001446  p :    -0.002672
      px      :    -0.000387
      py      :    -0.000839
      dz2     :     0.000099  d :     0.000418
      dxz     :     0.000038
      dyz     :     0.000098
      dx2y2   :     0.000190
      dxy     :    -0.000006
      f0      :     0.000016  f :     0.000058
      f+1     :     0.000001
      f-1     :     0.000013
      f+2     :     0.000003
      f-2     :     0.000008
      f+3     :     0.000013
      f-3     :     0.000004
 20 H s       :    -0.000017  s :    -0.000017
      pz      :     0.000026  p :     0.000048
      px      :     0.000007
      py      :     0.000016
 21 C s       :     0.000068  s :     0.000068
      pz      :     0.001192  p :     0.002401
      px      :     0.000386
      py      :     0.000823
      dz2     :    -0.000133  d :    -0.000684
      dxz     :    -0.000121
      dyz     :    -0.000154
      dx2y2   :    -0.000104
      dxy     :    -0.000172
      f0      :    -0.000012  f :    -0.000078
      f+1     :    -0.000022
      f-1     :    -0.000001
      f+2     :    -0.000005
      f-2     :    -0.000009
      f+3     :    -0.000013
      f-3     :    -0.000015
 22 H s       :     0.000182  s :     0.000182
      pz      :    -0.000047  p :    -0.000113
      px      :    -0.000025
      py      :    -0.000041
 23 H s       :     0.000018  s :     0.000018
      pz      :    -0.000027  p :    -0.000059
      px      :    -0.000014
      py      :    -0.000018
 24 H s       :    -0.000279  s :    -0.000279
      pz      :     0.000035  p :     0.000066
      px      :     0.000007
      py      :     0.000024
 25 C s       :     0.001609  s :     0.001609
      pz      :     0.014371  p :     0.028079
      px      :     0.003823
      py      :     0.009885
      dz2     :     0.001932  d :    -0.001782
      dxz     :    -0.001779
      dyz     :    -0.000359
      dx2y2   :    -0.000855
      dxy     :    -0.000722
      f0      :     0.000000  f :    -0.000566
      f+1     :     0.000057
      f-1     :    -0.000038
      f+2     :    -0.000209
      f-2     :    -0.000086
      f+3     :    -0.000162
      f-3     :    -0.000128
 26 C s       :     0.001064  s :     0.001064
      pz      :     0.008619  p :     0.016740
      px      :     0.003037
      py      :     0.005084
      dz2     :     0.001559  d :     0.002029
      dxz     :    -0.000005
      dyz     :     0.000030
      dx2y2   :    -0.000251
      dxy     :     0.000697
      f0      :     0.000152  f :     0.000335
      f+1     :     0.000236
      f-1     :    -0.000005
      f+2     :    -0.000028
      f-2     :    -0.000018
      f+3     :     0.000018
      f-3     :    -0.000020
 27 C s       :     0.001252  s :     0.001252
      pz      :     0.010111  p :     0.021933
      px      :     0.004739
      py      :     0.007082
      dz2     :    -0.000035  d :     0.000201
      dxz     :     0.000998
      dyz     :    -0.000004
      dx2y2   :    -0.001276
      dxy     :     0.000517
      f0      :     0.000035  f :    -0.000214
      f+1     :    -0.000001
      f-1     :    -0.000042
      f+2     :    -0.000101
      f-2     :    -0.000121
      f+3     :     0.000060
      f-3     :    -0.000044
 28 C s       :     0.000133  s :     0.000133
      pz      :     0.008040  p :     0.014019
      px      :     0.000805
      py      :     0.005173
      dz2     :     0.000846  d :     0.003564
      dxz     :     0.000648
      dyz     :     0.000282
      dx2y2   :     0.001655
      dxy     :     0.000134
      f0      :     0.000139  f :     0.000354
      f+1     :     0.000004
      f-1     :     0.000012
      f+2     :     0.000006
      f-2     :    -0.000014
      f+3     :     0.000203
      f-3     :     0.000005
 29 H s       :    -0.000737  s :    -0.000737
      pz      :     0.000235  p :     0.000565
      px      :     0.000072
      py      :     0.000259
 30 C s       :     0.000224  s :     0.000224
      pz      :     0.007525  p :     0.014081
      px      :     0.001751
      py      :     0.004804
      dz2     :     0.001508  d :     0.003498
      dxz     :     0.001020
      dyz     :     0.000015
      dx2y2   :     0.000080
      dxy     :     0.000875
      f0      :     0.000142  f :     0.000339
      f+1     :     0.000004
      f-1     :     0.000050
      f+2     :     0.000009
      f-2     :    -0.000002
      f+3     :     0.000114
      f-3     :     0.000022
 31 H s       :    -0.000290  s :    -0.000290
      pz      :     0.000165  p :     0.000384
      px      :     0.000057
      py      :     0.000162
 32 H s       :    -0.000713  s :    -0.000713
      pz      :     0.000236  p :     0.000457
      px      :     0.000091
      py      :     0.000130
 33 H s       :    -0.003041  s :    -0.003041
      pz      :     0.000334  p :     0.000756
      px      :     0.000108
      py      :     0.000314
 34 C s       :    -0.011581  s :    -0.011581
      pz      :    -0.100769  p :    -0.126097
      px      :    -0.021858
      py      :    -0.003470
      dz2     :     0.007730  d :     0.036808
      dxz     :     0.007702
      dyz     :     0.011047
      dx2y2   :     0.003772
      dxy     :     0.006557
      f0      :     0.001167  f :     0.003343
      f+1     :     0.000324
      f-1     :     0.000447
      f+2     :     0.000735
      f-2     :     0.000441
      f+3     :     0.000152
      f-3     :     0.000077
 35 H s       :     0.012627  s :     0.012627
      pz      :    -0.001763  p :    -0.002786
      px      :    -0.000731
      py      :    -0.000292
 36 H s       :     0.010521  s :     0.010521
      pz      :    -0.002056  p :    -0.002814
      px      :    -0.000606
      py      :    -0.000152
 37 H s       :     0.007586  s :     0.007586
      pz      :    -0.001647  p :    -0.002835
      px      :    -0.000400
      py      :    -0.000787


                      *****************************
                      * MAYER POPULATION ANALYSIS *
                      *****************************

  NA   - Mulliken gross atomic population
  ZA   - Total nuclear charge
  QA   - Mulliken gross atomic charge
  VA   - Mayer's total valence
  BVA  - Mayer's bonded valence
  FA   - Mayer's free valence

  ATOM       NA         ZA         QA         VA         BVA        FA
  0 Cr    23.3402    24.0000     0.6598     6.0357     3.3604     2.6753
  1 O      8.3125     8.0000    -0.3125     2.1086     2.1077     0.0009
  2 N      7.1572     7.0000    -0.1572     3.2787     3.2717     0.0070
  3 N      7.1849     7.0000    -0.1849     3.2256     3.2209     0.0046
  4 C      5.6357     6.0000     0.3643     3.4058     3.4053     0.0005
  5 C      6.2740     6.0000    -0.2740     4.0428     4.0427     0.0001
  6 C      6.2734     6.0000    -0.2734     4.0220     4.0220     0.0000
  7 C      6.0933     6.0000    -0.0933     3.8560     3.8561    -0.0000
  8 H      0.8330     1.0000     0.1670     0.9702     0.9702     0.0000
  9 C      6.0847     6.0000    -0.0847     3.8552     3.8552     0.0000
 10 H      0.8162     1.0000     0.1838     0.9633     0.9633     0.0000
 11 C      6.1372     6.0000    -0.1372     3.8976     3.8976     0.0000
 12 H      0.8430     1.0000     0.1570     0.9611     0.9611     0.0000
 13 H      0.8445     1.0000     0.1555     0.9614     0.9614     0.0000
 14 H      0.8419     1.0000     0.1581     0.9607     0.9607    -0.0000
 15 C      5.6907     6.0000     0.3093     3.6716     3.6716     0.0000
 16 C      5.8568     6.0000     0.1432     3.9299     3.9298     0.0001
 17 C      6.1888     6.0000    -0.1888     3.8674     3.8674     0.0000
 18 C      6.2053     6.0000    -0.2053     3.9233     3.9233     0.0000
 19 C      6.1258     6.0000    -0.1258     3.8846     3.8846     0.0000
 20 H      0.8165     1.0000     0.1835     0.9567     0.9567     0.0000
 21 C      6.1534     6.0000    -0.1534     3.9185     3.9184     0.0000
 22 H      0.8451     1.0000     0.1549     0.9723     0.9723     0.0000
 23 H      0.8426     1.0000     0.1574     0.9608     0.9608     0.0000
 24 H      0.8455     1.0000     0.1545     0.9616     0.9616     0.0000
 25 C      6.0769     6.0000    -0.0769     4.1122     4.1108     0.0013
 26 C      5.7302     6.0000     0.2698     3.5198     3.5189     0.0009
 27 C      6.1426     6.0000    -0.1426     3.9536     3.9530     0.0006
 28 C      6.0973     6.0000    -0.0973     3.8099     3.8095     0.0003
 29 H      0.8343     1.0000     0.1657     0.9735     0.9735     0.0000
 30 C      6.2633     6.0000    -0.2633     3.9446     3.9443     0.0003
 31 H      0.8404     1.0000     0.1596     0.9698     0.9698     0.0000
 32 H      0.8374     1.0000     0.1626     0.9667     0.9667     0.0000
 33 H      0.8293     1.0000     0.1707     0.9656     0.9656     0.0000
 34 C      6.5898     6.0000    -0.5898     3.8415     3.8056     0.0359
 35 H      0.8341     1.0000     0.1659     0.9747     0.9742     0.0005
 36 H      0.8450     1.0000     0.1550     0.9708     0.9705     0.0004
 37 H      0.8373     1.0000     0.1627     0.9688     0.9685     0.0003

  Mayer bond orders larger than 0.100000
B(  0-Cr,  1-O ) :   0.4281 B(  0-Cr,  2-N ) :   0.8014 B(  0-Cr,  3-N ) :   0.7701 
B(  0-Cr, 34-C ) :   1.0191 B(  1-O ,  4-C ) :   0.6687 B(  1-O , 15-C ) :   0.7141 
B(  1-O , 16-C ) :   0.1525 B(  2-N , 16-C ) :   0.9977 B(  2-N , 25-C ) :   1.4275 
B(  3-N , 26-C ) :   0.9419 B(  3-N , 27-C ) :   1.3542 B(  4-C ,  5-C ) :   1.3860 
B(  4-C ,  6-C ) :   1.3626 B(  5-C ,  7-C ) :   1.3797 B(  5-C ,  8-H ) :   0.9637 
B(  6-C ,  9-C ) :   1.3902 B(  6-C , 10-H ) :   0.9525 B(  7-C , 11-C ) :   1.3877 
B(  7-C , 12-H ) :   0.9604 B(  9-C , 11-C ) :   1.3776 B(  9-C , 14-H ) :   0.9584 
B( 11-C , 13-H ) :   0.9620 B( 15-C , 16-C ) :   1.3504 B( 15-C , 18-C ) :   1.4031 
B( 16-C , 17-C ) :   1.2948 B( 17-C , 21-C ) :   1.4032 B( 17-C , 22-H ) :   0.9598 
B( 18-C , 19-C ) :   1.3688 B( 18-C , 20-H ) :   0.9393 B( 19-C , 21-C ) :   1.3865 
B( 19-C , 23-H ) :   0.9625 B( 21-C , 24-H ) :   0.9653 B( 25-C , 26-C ) :   1.3332 
B( 25-C , 33-H ) :   0.9145 B( 26-C , 30-C ) :   1.2403 B( 27-C , 28-C ) :   1.3372 
B( 27-C , 29-H ) :   0.9537 B( 28-C , 30-C ) :   1.4434 B( 28-C , 32-H ) :   0.9617 
B( 30-C , 31-H ) :   0.9812 B( 34-C , 35-H ) :   0.9446 B( 34-C , 36-H ) :   0.9364 
B( 34-C , 37-H ) :   0.9172 

-------
TIMINGS
-------

Total SCF time: 0 days 0 hours 6 min 41 sec 

Total time                  ....     401.672 sec
Sum of individual times     ....     400.245 sec  ( 99.6%)

Fock matrix formation       ....     369.756 sec  ( 92.1%)
  Split-RI-J                ....      70.945 sec  ( 19.2% of F)
  XC integration            ....     235.541 sec  ( 63.7% of F)
    Basis function eval.    ....      48.787 sec  ( 20.7% of XC)
    Density eval.           ....      98.833 sec  ( 42.0% of XC)
    XC-Functional eval.     ....       6.401 sec  (  2.7% of XC)
    XC-Potential eval.      ....      77.882 sec  ( 33.1% of XC)
Diagonalization             ....       4.010 sec  (  1.0%)
Density matrix formation    ....       0.438 sec  (  0.1%)
Population analysis         ....       0.194 sec  (  0.0%)
Initial guess               ....       0.269 sec  (  0.1%)
Orbital Transformation      ....       0.000 sec  (  0.0%)
Orbital Orthonormalization  ....       0.208 sec  (  0.1%)
DIIS solution               ....       1.598 sec  (  0.4%)
Grid generation             ....      23.980 sec  (  6.0%)


-------------------------------------------------------------------------------
                          DFT DISPERSION CORRECTION                            
                                                                               
                              DFTD3 V3.1  Rev 1                                
                          USING Becke-Johnson damping                          
-------------------------------------------------------------------------------
The BP86 functional is recognized
Active option DFTDOPT                   ...         4   

molecular C6(AA) [au] = 20731.674282 


            DFT-D V3
 parameters
 s6 scaling factor         :     1.0000 
 a1 scaling factor         :     0.3946 
 s8 scaling factor         :     3.2822 
 a2 scaling factor         :     4.8516 
 ad hoc parameters k1-k3   :    16.0000     1.3333    -4.0000 

 Edisp/kcal,au: -58.433274808910  -0.093119340808 
 E6   /kcal   : -20.714513870 
 E8   /kcal   : -37.718760939 
 % E8         :  64.550140415 

-------------------------   ----------------
Dispersion correction           -0.093119341
-------------------------   ----------------


-------------------------   --------------------
FINAL SINGLE POINT ENERGY     -1925.204992865863
-------------------------   --------------------


                            ***************************************
                            *     ORCA property calculations      *
                            ***************************************

                                    ---------------------
                                    Active property flags
                                    ---------------------
   (+) Dipole Moment


------------------------------------------------------------------------------
                       ORCA ELECTRIC PROPERTIES CALCULATION
------------------------------------------------------------------------------

Dipole Moment Calculation                       ... on
Quadrupole Moment Calculation                   ... off
Polarizability Calculation                      ... off
GBWName                                         ... Cr2A_Solv2.gbw
Electron density file                           ... Cr2A_Solv2.scfp
The origin for moment calculation is the CENTER OF MASS  = (-1.349578, -3.237174 -1.518273)

-------------
DIPOLE MOMENT
-------------
                                X             Y             Z
Electronic contribution:      9.31443      -3.61336       1.44392
Nuclear contribution   :     -9.27417       3.24305      -1.41537
                        -----------------------------------------
Total Dipole Moment    :      0.04026      -0.37031       0.02854
                        -----------------------------------------
Magnitude (a.u.)       :      0.37359
Magnitude (Debye)      :      0.94958



--------------------
Rotational spectrum 
--------------------
 
Rotational constants in cm-1:     0.013217     0.006916     0.004890 
Rotational constants in MHz :   396.239918   207.328965   146.584104 

 Dipole components along the rotational axes: 
x,y,z [a.u.] :    -0.054637    -0.242384     0.278982 
x,y,z [Debye]:    -0.138875    -0.616092     0.709116 

 

Timings for individual modules:

Sum of individual times         ...      402.200 sec (=   6.703 min)
GTO integral calculation        ...        0.516 sec (=   0.009 min)   0.1 %
SCF iterations                  ...      401.684 sec (=   6.695 min)  99.9 %
                             ****ORCA TERMINATED NORMALLY****
TOTAL RUN TIME: 0 days 0 hours 6 minutes 42 seconds 410 msec
