
                                 *****************
                                 * O   R   C   A *
                                 *****************

           --- An Ab Initio, DFT and Semiempirical electronic structure package ---

                  #######################################################
                  #                        -***-                        #
                  #          Department of theory and spectroscopy      #
                  #               Directorship: Frank Neese             #
                  #        Max Planck Institute fuer Kohlenforschung    #
                  #                Kaiser Wilhelm Platz 1               #
                  #                 D-45470 Muelheim/Ruhr               #
                  #                      Germany                        #
                  #                                                     #
                  #                  All rights reserved                #
                  #                        -***-                        #
                  #######################################################


                         Program Version 4.2.1 -  RELEASE  -


 With contributions from (in alphabetic order):
   Daniel Aravena         : Magnetic Suceptibility
   Michael Atanasov       : Ab Initio Ligand Field Theory (pilot matlab implementation)
   Alexander A. Auer      : GIAO ZORA, VPT2
   Ute Becker             : Parallelization
   Giovanni Bistoni       : ED, misc. LED, open-shell LED, HFLD
   Martin Brehm           : Molecular dynamics
   Dmytro Bykov           : SCF Hessian
   Vijay G. Chilkuri      : MRCI spin determinant printing, contributions to CSF-ICE
   Dipayan Datta          : RHF DLPNO-CCSD density
   Achintya Kumar Dutta   : EOM-CC, STEOM-CC
   Dmitry Ganyushin       : Spin-Orbit,Spin-Spin,Magnetic field MRCI
   Miquel Garcia          : C-PCM Hessian, Gaussian charge scheme
   Yang Guo               : DLPNO-NEVPT2, CIM, IAO-localization
   Andreas Hansen         : Spin unrestricted coupled pair/coupled cluster methods
   Benjamin Helmich-Paris : CASSCF linear response (MC-RPA)
   Lee Huntington         : MR-EOM, pCC
   Robert Izsak           : Overlap fitted RIJCOSX, COSX-SCS-MP3, EOM
   Christian Kollmar      : KDIIS, OOCD, Brueckner-CCSD(T), CCSD density
   Simone Kossmann        : Meta GGA functionals, TD-DFT gradient, OOMP2, MP2 Hessian
   Martin Krupicka        : AUTO-CI
   Lucas Lang             : DCDCAS
   Dagmar Lenk            : GEPOL surface, SMD
   Dimitrios Liakos       : Extrapolation schemes; Compound Job, initial MDCI parallelization
   Dimitrios Manganas     : Further ROCIS development; embedding schemes
   Dimitrios Pantazis     : SARC Basis sets
   Taras Petrenko         : DFT Hessian,TD-DFT gradient, ASA, ECA, R-Raman, ABS, FL, XAS/XES, NRVS
   Peter Pinski           : DLPNO-MP2, DLPNO-MP2 Gradient
   Christoph Reimann      : Effective Core Potentials
   Marius Retegan         : Local ZFS, SOC
   Christoph Riplinger    : Optimizer, TS searches, QM/MM, DLPNO-CCSD(T), (RO)-DLPNO pert. Triples
   Tobias Risthaus        : Range-separated hybrids, TD-DFT gradient, RPA, STAB
   Michael Roemelt        : Original ROCIS implementation
   Masaaki Saitow         : Open-shell DLPNO-CCSD energy and density
   Barbara Sandhoefer     : DKH picture change effects
   Avijit Sen             : IP-ROCIS
   Kantharuban Sivalingam : CASSCF convergence, NEVPT2, FIC-MRCI
   Bernardo de Souza      : ESD, SOC TD-DFT
   Georgi Stoychev        : AutoAux, RI-MP2 NMR
   Willem Van den Heuvel  : Paramagnetic NMR
   Boris Wezisla          : Elementary symmetry handling
   Frank Wennmohs         : Technical directorship


 We gratefully acknowledge several colleagues who have allowed us to
 interface, adapt or use parts of their codes:
   Stefan Grimme, W. Hujo, H. Kruse,             : VdW corrections, initial TS optimization,
                  C. Bannwarth                     DFT functionals, gCP, sTDA/sTD-DF
   Ed Valeev, F. Pavosevic, A. Kumar             : LibInt (2-el integral package), F12 methods
   Garnet Chan, S. Sharma, J. Yang, R. Olivares  : DMRG
   Ulf Ekstrom                                   : XCFun DFT Library
   Mihaly Kallay                                 : mrcc  (arbitrary order and MRCC methods)
   Andreas Klamt, Michael Diedenhofen            : otool_cosmo (COSMO solvation model)
   Jiri Pittner, Ondrej Demel                    : Mk-CCSD
   Frank Weinhold                                : gennbo (NPA and NBO analysis)
   Christopher J. Cramer and Donald G. Truhlar   : smd solvation model
   Lars Goerigk                                  : TD-DFT with DH, B97 family of functionals
   V. Asgeirsson, H. Jonsson                     : NEB implementation
   FAccTs GmbH                                   : IRC, NEB, NEB-TS, Multilevel, MM, QM/MM, CI optimization
   S Lehtola, MJT Oliveira, MAL Marques          : LibXC Library


 Your calculation uses the libint2 library for the computation of 2-el integrals
 For citations please refer to: http://libint.valeyev.net

 Your ORCA version has been built with support for libXC version: 4.2.3
 For citations please refer to: https://tddft.org/programs/libxc/

 This ORCA versions uses:
   CBLAS   interface :  Fast vector & matrix operations
   LAPACKE interface :  Fast linear algebra routines
   SCALAPACK package :  Parallel linear algebra routines


Your calculation utilizes the atom-pairwise dispersion correction
with the Becke-Johnson damping scheme (D3BJ)
Cite in your paper:
S.Grimme, S.Ehrlich, L.Goerigk, J Comput Chem, (2011), 32, 1456–1465 
S.Grimme, J.Antony, S.Ehrlich and H.Krieg, J.Chem.Phys., 132, (2010), 154104 
   

----- Orbital basis set information -----
Your calculation utilizes the basis: def2-TZVP
   F. Weigend and R. Ahlrichs, Phys. Chem. Chem. Phys. 7, 3297 (2005).

----- AuxJ basis set information -----
Your calculation utilizes the auxiliary basis: def2/J
   F. Weigend, Phys. Chem. Chem. Phys. 8, 1057 (2006).

================================================================================
                                        WARNINGS
                       Please study these warnings very carefully!
================================================================================


WARNING: your system is open-shell and RHF/RKS was chosen
  ===> : WILL SWITCH to UHF/UKS


INFO   : the flag for use of LIBINT has been found!

================================================================================
                                       INPUT FILE
================================================================================
NAME = IM1_2F-1_Freq.inp
|  1> #
|  2> # ORCA calc attempt 1 :-)
|  3> #
|  4> ! BP86 D3BJ RIJCOSX def2-TZVP def2/J Grid6 FinalGrid6 MORead Freq 
|  5> %moinp "IM1_2F-1_Tight.ges"
|  6> * xyz 1 4
|  7>   Cr  0.33635983472405     -2.02176541705681     -1.33396407319528
|  8>   O   -1.50173695506261     -2.07216026842456     -0.34992253832519
|  9>   N   0.47430263220878     -0.45278933123217     -0.14142495627620
| 10>   N   2.24603596299312     -1.62487024304410     -1.61741337087192
| 11>   C   -2.59094859824813     -2.89533710761570     -0.74550676416799
| 12>   C   -2.70830764269911     -4.14320085454259     -0.14547646742878
| 13>   C   -3.45418718247453     -2.45200142923842     -1.74254152152185
| 14>   C   -3.72606242381215     -4.99610894066112     -0.58418864677821
| 15>   H   -2.02886992522242     -4.43068734175448      0.65704455651104
| 16>   C   -4.46907847002685     -3.31366714210964     -2.16549248371499
| 17>   H   -3.33696330599666     -1.45615990766070     -2.16823235230793
| 18>   C   -4.60008239571033     -4.58331746672599     -1.59314944797368
| 19>   H   -3.83747054987622     -5.97997377208511     -0.12887390814015
| 20>   H   -5.39241938651055     -5.25093699519338     -1.93099549127423
| 21>   H   -5.15782883397625     -2.98998490567525     -2.94569784482181
| 22>   C   -1.76743340234835     -0.92091145068577      0.43723946739613
| 23>   C   -0.66869048568930     -0.05216682064652      0.55601672258805
| 24>   C   -0.81965062683894      1.10183976231287      1.33761837178457
| 25>   C   -2.97957720946295     -0.69073999311843      1.06397222724978
| 26>   C   -3.10773932775664      0.46673751508400      1.84081008655543
| 27>   H   -3.80587217970097     -1.39112368629150      0.95322952054367
| 28>   C   -2.03533931116487      1.35365980552307      1.97319879630203
| 29>   H   0.00637796765931      1.80478525806138      1.44186334232090
| 30>   H   -4.05323451144389      0.67076658144570      2.34168236444311
| 31>   H   -2.14706267110751      2.25439780766911      2.57582586385026
| 32>   C   1.67819733203258      0.12059205839230     -0.11728034092266
| 33>   C   2.65673698957827     -0.48104986297914     -0.91358272741262
| 34>   C   3.31468415923717     -2.04979815236881     -2.33283505275113
| 35>   C   4.42712756568596     -1.21116934930578     -2.10377155234328
| 36>   H   3.25449957086479     -2.92002100425585     -2.98221659836989
| 37>   C   4.01604980340038     -0.21990706472572     -1.20748965922343
| 38>   H   4.61408439634042      0.59277502744830     -0.80578689598285
| 39>   H   5.41108703211857     -1.32718782239555     -2.54677179917943
| 40>   H   1.88351582178475      1.00119565460029      0.49605836284001
| 41>   C   -0.34107142268750     -1.06284178617407     -2.98239651773086
| 42>   H   0.42717404586188     -1.09516998376861     -3.76502348404421
| 43>   H   -0.54449635074618     -0.01978789501534     -2.70162725522902
| 44>   H   -1.26445086923020     -1.54892377663286     -3.32803608269079
| 45>   C   0.61029117451763     -4.37433234540221     -1.62245866198275
| 46>   C   -0.03070280280890     -4.04971610418394     -2.77085543776407
| 47>   H   1.69688992262005     -4.46514566076679     -1.57351920274594
| 48>   H   0.04961154324442     -4.69745306811383     -0.74057301983485
| 49>   H   0.51280192031145     -3.82939901685283     -3.69054321961393
| 50>   H   -1.12049083458148     -4.06614350383331     -2.83515230776500
| 51> *
| 52> 
| 53>                          ****END OF INPUT****
================================================================================

                       ****************************
                       * Single Point Calculation *
                       ****************************

---------------------------------
CARTESIAN COORDINATES (ANGSTROEM)
---------------------------------
  Cr     0.336360   -2.021765   -1.333964
  O     -1.501737   -2.072160   -0.349923
  N      0.474303   -0.452789   -0.141425
  N      2.246036   -1.624870   -1.617413
  C     -2.590949   -2.895337   -0.745507
  C     -2.708308   -4.143201   -0.145476
  C     -3.454187   -2.452001   -1.742542
  C     -3.726062   -4.996109   -0.584189
  H     -2.028870   -4.430687    0.657045
  C     -4.469078   -3.313667   -2.165492
  H     -3.336963   -1.456160   -2.168232
  C     -4.600082   -4.583317   -1.593149
  H     -3.837471   -5.979974   -0.128874
  H     -5.392419   -5.250937   -1.930995
  H     -5.157829   -2.989985   -2.945698
  C     -1.767433   -0.920911    0.437239
  C     -0.668690   -0.052167    0.556017
  C     -0.819651    1.101840    1.337618
  C     -2.979577   -0.690740    1.063972
  C     -3.107739    0.466738    1.840810
  H     -3.805872   -1.391124    0.953230
  C     -2.035339    1.353660    1.973199
  H      0.006378    1.804785    1.441863
  H     -4.053235    0.670767    2.341682
  H     -2.147063    2.254398    2.575826
  C      1.678197    0.120592   -0.117280
  C      2.656737   -0.481050   -0.913583
  C      3.314684   -2.049798   -2.332835
  C      4.427128   -1.211169   -2.103772
  H      3.254500   -2.920021   -2.982217
  C      4.016050   -0.219907   -1.207490
  H      4.614084    0.592775   -0.805787
  H      5.411087   -1.327188   -2.546772
  H      1.883516    1.001196    0.496058
  C     -0.341071   -1.062842   -2.982397
  H      0.427174   -1.095170   -3.765023
  H     -0.544496   -0.019788   -2.701627
  H     -1.264451   -1.548924   -3.328036
  C      0.610291   -4.374332   -1.622459
  C     -0.030703   -4.049716   -2.770855
  H      1.696890   -4.465146   -1.573519
  H      0.049612   -4.697453   -0.740573
  H      0.512802   -3.829399   -3.690543
  H     -1.120491   -4.066144   -2.835152

----------------------------
CARTESIAN COORDINATES (A.U.)
----------------------------
  NO LB      ZA    FRAG     MASS         X           Y           Z
   0 Cr   24.0000    0    52.000    0.635628   -3.820583   -2.520827
   1 O     8.0000    0    15.999   -2.837872   -3.915815   -0.661258
   2 N     7.0000    0    14.007    0.896302   -0.855648   -0.267254
   3 N     7.0000    0    14.007    4.244393   -3.070560   -3.056468
   4 C     6.0000    0    12.011   -4.896183   -5.471394   -1.408804
   5 C     6.0000    0    12.011   -5.117960   -7.829515   -0.274911
   6 C     6.0000    0    12.011   -6.527468   -4.633611   -3.292926
   7 C     6.0000    0    12.011   -7.041238   -9.441278   -1.103957
   8 H     1.0000    0     1.008   -3.834009   -8.372786    1.241634
   9 C     6.0000    0    12.011   -8.445334   -6.261923   -4.092188
  10 H     1.0000    0     1.008   -6.305947   -2.751743   -4.097365
  11 C     6.0000    0    12.011   -8.692896   -8.661215   -3.010616
  12 H     1.0000    0     1.008   -7.251768  -11.300513   -0.243536
  13 H     1.0000    0     1.008  -10.190196   -9.922833   -3.649053
  14 H     1.0000    0     1.008   -9.746884   -5.650253   -5.566562
  15 C     6.0000    0    12.011   -3.339965   -1.740270    0.826263
  16 C     6.0000    0    12.011   -1.263642   -0.098581    1.050719
  17 C     6.0000    0    12.011   -1.548915    2.082175    2.527732
  18 C     6.0000    0    12.011   -5.630585   -1.305309    2.010616
  19 C     6.0000    0    12.011   -5.872776    0.882006    3.478627
  20 H     1.0000    0     1.008   -7.192056   -2.628843    1.801343
  21 C     6.0000    0    12.011   -3.846234    2.558046    3.728805
  22 H     1.0000    0     1.008    0.012053    3.410550    2.724727
  23 H     1.0000    0     1.008   -7.659503    1.267565    4.425138
  24 H     1.0000    0     1.008   -4.057360    4.260194    4.867605
  25 C     6.0000    0    12.011    3.171333    0.227886   -0.221628
  26 C     6.0000    0    12.011    5.020505   -0.909052   -1.726421
  27 C     6.0000    0    12.011    6.263845   -3.873557   -4.408419
  28 C     6.0000    0    12.011    8.366059   -2.288778   -3.975552
  29 H     1.0000    0     1.008    6.150113   -5.518040   -5.635573
  30 C     6.0000    0    12.011    7.589234   -0.415564   -2.281825
  31 H     1.0000    0     1.008    8.719356    1.120182   -1.522717
  32 H     1.0000    0     1.008   10.225473   -2.508022   -4.812701
  33 H     1.0000    0     1.008    3.559329    1.891986    0.937414
  34 C     6.0000    0    12.011   -0.644532   -2.008480   -5.635913
  35 H     1.0000    0     1.008    0.807242   -2.069571   -7.114863
  36 H     1.0000    0     1.008   -1.028949   -0.037394   -5.105336
  37 H     1.0000    0     1.008   -2.389466   -2.927042   -6.289077
  38 C     6.0000    0    12.011    1.153283   -8.266290   -3.066003
  39 C     6.0000    0    12.011   -0.058020   -7.652854   -5.236158
  40 H     1.0000    0     1.008    3.206657   -8.437902   -2.973520
  41 H     1.0000    0     1.008    0.093752   -8.876900   -1.399480
  42 H     1.0000    0     1.008    0.969055   -7.236515   -6.974116
  43 H     1.0000    0     1.008   -2.117421   -7.683898   -5.357661

--------------------------------
INTERNAL COORDINATES (ANGSTROEM)
--------------------------------
 Cr     0   0   0     0.000000000000     0.00000000     0.00000000
 O      1   0   0     2.085540024075     0.00000000     0.00000000
 N      1   2   0     1.975566682916    78.22360278     0.00000000
 N      1   2   3     1.970972399195   157.92083930    26.29690936
 C      2   1   3     1.421439056719   123.92029455   168.24696728
 C      5   2   1     1.389594701060   117.68400033    93.16840477
 C      5   2   1     1.391332341459   119.36208480   275.76271076
 C      6   5   2     1.398479665263   118.27355433   183.88159364
 H      6   5   2     1.090102786954   120.13733201     4.90598525
 C      7   5   2     1.396910749729   118.11135556   176.34598912
 H      7   5   2     1.089336704940   120.30225771   355.87608626
 C      8   6   5     1.397250732896   120.10484066   359.48168043
 H      8   6   5     1.089822594869   119.59853442   179.97184045
 H     12   8   6     1.089795251758   119.84568338   180.07107150
 H     10   7   5     1.089893416589   119.51654274   180.04120279
 C      2   1   3     1.419715628461   114.01404516     9.25624750
 C      3   1   2     1.397625328537   118.14974317   351.21140730
 C     17   3   1     1.401934840054   127.02947612   187.00330983
 C     16   2   1     1.383858902229   123.36037089   173.39599801
 C     19  16   2     1.399877412565   117.97197401   178.42861877
 H     19  16   2     1.088836370899   120.77476233   358.40968743
 C     18  17   3     1.394731080671   119.77126996   180.11094284
 H     18  17   3     1.089643346607   120.18119334     0.64557972
 H     20  19  16     1.089248383544   119.30926228   179.83781528
 H     22  18  17     1.089481730094   119.38778344   180.24447164
 C      3   1   2     1.333683481446   114.54440867   172.17891435
 C     26   3   1     1.397716120559   115.88684721   358.99869873
 C      4   1   2     1.354400560529   141.01110358   156.44516995
 C     28   4   1     1.411842303197   110.46514560   175.90027804
 H     28   4   1     1.087477074891   121.52144587   356.36923891
 C     29  28   4     1.398179915251   107.06560934   359.73062963
 H     31  29  28     1.086030693530   127.28142384   179.70656170
 H     29  28   4     1.085304444097   125.77738502   179.67731157
 H     26   3   1     1.092612804896   121.75525458   179.51844131
 C      1   2   3     2.023802649119    95.78275480   263.03035662
 H     35   1   2     1.097155950951   109.43103511   191.47777943
 H     35   1   2     1.099169914064   107.66928416    72.10482446
 H     35   1   2     1.099259756660   109.13318290   312.55497929
 C      1   2   3     2.385967028068    97.72470845   147.77198944
 C     39   1   2     1.354645391849    79.15811073    90.82624455
 H     39   1   2     1.091484754037   101.00594839   211.58813951
 H     39   1   2     1.093842281226    97.75470931   330.84278550
 H     40  39   1     1.090762402684   121.83074815    94.06864550
 H     40  39   1     1.091806714188   121.24012036   269.66483693

---------------------------
INTERNAL COORDINATES (A.U.)
---------------------------
 Cr     0   0   0     0.000000000000     0.00000000     0.00000000
 O      1   0   0     3.941099486833     0.00000000     0.00000000
 N      1   2   0     3.733279990011    78.22360278     0.00000000
 N      1   2   3     3.724598051996   157.92083930    26.29690936
 C      2   1   3     2.686130533259   123.92029455   168.24696728
 C      5   2   1     2.625953422151   117.68400033    93.16840477
 C      5   2   1     2.629237086626   119.36208480   275.76271076
 C      6   5   2     2.642743571205   118.27355433   183.88159364
 H      6   5   2     2.059995725167   120.13733201     4.90598525
 C      7   5   2     2.639778750518   118.11135556   176.34598912
 H      7   5   2     2.058548039965   120.30225771   355.87608626
 C      8   6   5     2.640421225595   120.10484066   359.48168043
 H      8   6   5     2.059466238862   119.59853442   179.97184045
 H     12   8   6     2.059414567871   119.84568338   180.07107150
 H     10   7   5     2.059600072516   119.51654274   180.04120279
 C      2   1   3     2.682873725839   114.01404516     9.25624750
 C      3   1   2     2.641129108766   118.14974317   351.21140730
 C     17   3   1     2.649272905304   127.02947612   187.00330983
 C     16   2   1     2.615114333202   123.36037089   173.39599801
 C     19  16   2     2.645384930811   117.97197401   178.42861877
 H     19  16   2     2.057602545651   120.77476233   358.40968743
 C     18  17   3     2.635659772937   119.77126996   180.11094284
 H     18  17   3     2.059127508736   120.18119334     0.64557972
 H     20  19  16     2.058381136714   119.30926228   179.83781528
 H     22  18  17     2.058822097788   119.38778344   180.24447164
 C      3   1   2     2.520296529268   114.54440867   172.17891435
 C     26   3   1     2.641300680824   115.88684721   358.99869873
 C      4   1   2     2.559446135029   141.01110358   156.44516995
 C     28   4   1     2.667995297327   110.46514560   175.90027804
 H     28   4   1     2.055033848462   121.52144587   356.36923891
 C     29  28   4     2.642177125773   107.06560934   359.73062963
 H     31  29  28     2.052300583804   127.28142384   179.70656170
 H     29  28   4     2.050928171272   125.77738502   179.67731157
 H     26   3   1     2.064738971668   121.75525458   179.51844131
 C      1   2   3     3.824432755939    95.78275480   263.03035662
 H     35   1   2     2.073324273499   109.43103511   191.47777943
 H     35   1   2     2.077130112226   107.66928416    72.10482446
 H     35   1   2     2.077299890128   109.13318290   312.55497929
 C      1   2   3     4.508824247614    97.72470845   147.77198944
 C     39   1   2     2.559908799172    79.15811073    90.82624455
 H     39   1   2     2.062607264481   101.00594839   211.58813951
 H     39   1   2     2.067062345220    97.75470931   330.84278550
 H     40  39   1     2.061242218250   121.83074815    94.06864550
 H     40  39   1     2.063215680992   121.24012036   269.66483693

---------------------
BASIS SET INFORMATION
---------------------
There are 5 groups of distinct atoms

 Group   1 Type Cr  : 17s11p7d1f contracted to 6s4p4d1f pattern {842111/6311/4111/1}
 Group   2 Type O   : 11s6p2d1f contracted to 5s3p2d1f pattern {62111/411/11/1}
 Group   3 Type N   : 11s6p2d1f contracted to 5s3p2d1f pattern {62111/411/11/1}
 Group   4 Type C   : 11s6p2d1f contracted to 5s3p2d1f pattern {62111/411/11/1}
 Group   5 Type H   : 5s1p contracted to 3s1p pattern {311/1}

Atom   0Cr   basis set group =>   1
Atom   1O    basis set group =>   2
Atom   2N    basis set group =>   3
Atom   3N    basis set group =>   3
Atom   4C    basis set group =>   4
Atom   5C    basis set group =>   4
Atom   6C    basis set group =>   4
Atom   7C    basis set group =>   4
Atom   8H    basis set group =>   5
Atom   9C    basis set group =>   4
Atom  10H    basis set group =>   5
Atom  11C    basis set group =>   4
Atom  12H    basis set group =>   5
Atom  13H    basis set group =>   5
Atom  14H    basis set group =>   5
Atom  15C    basis set group =>   4
Atom  16C    basis set group =>   4
Atom  17C    basis set group =>   4
Atom  18C    basis set group =>   4
Atom  19C    basis set group =>   4
Atom  20H    basis set group =>   5
Atom  21C    basis set group =>   4
Atom  22H    basis set group =>   5
Atom  23H    basis set group =>   5
Atom  24H    basis set group =>   5
Atom  25C    basis set group =>   4
Atom  26C    basis set group =>   4
Atom  27C    basis set group =>   4
Atom  28C    basis set group =>   4
Atom  29H    basis set group =>   5
Atom  30C    basis set group =>   4
Atom  31H    basis set group =>   5
Atom  32H    basis set group =>   5
Atom  33H    basis set group =>   5
Atom  34C    basis set group =>   4
Atom  35H    basis set group =>   5
Atom  36H    basis set group =>   5
Atom  37H    basis set group =>   5
Atom  38C    basis set group =>   4
Atom  39C    basis set group =>   4
Atom  40H    basis set group =>   5
Atom  41H    basis set group =>   5
Atom  42H    basis set group =>   5
Atom  43H    basis set group =>   5
---------------------------------
AUXILIARY/J BASIS SET INFORMATION
---------------------------------
There are 5 groups of distinct atoms

 Group   1 Type Cr  : 19s5p5d3f3g contracted to 8s5p5d2f3g pattern {121111111/11111/11111/21/111}
 Group   2 Type O   : 12s5p4d2f1g contracted to 6s4p3d1f1g pattern {711111/2111/211/2/1}
 Group   3 Type N   : 12s5p4d2f1g contracted to 6s4p3d1f1g pattern {711111/2111/211/2/1}
 Group   4 Type C   : 12s5p4d2f1g contracted to 6s4p3d1f1g pattern {711111/2111/211/2/1}
 Group   5 Type H   : 5s2p1d contracted to 3s1p1d pattern {311/2/1}

Atom   0Cr   basis set group =>   1
Atom   1O    basis set group =>   2
Atom   2N    basis set group =>   3
Atom   3N    basis set group =>   3
Atom   4C    basis set group =>   4
Atom   5C    basis set group =>   4
Atom   6C    basis set group =>   4
Atom   7C    basis set group =>   4
Atom   8H    basis set group =>   5
Atom   9C    basis set group =>   4
Atom  10H    basis set group =>   5
Atom  11C    basis set group =>   4
Atom  12H    basis set group =>   5
Atom  13H    basis set group =>   5
Atom  14H    basis set group =>   5
Atom  15C    basis set group =>   4
Atom  16C    basis set group =>   4
Atom  17C    basis set group =>   4
Atom  18C    basis set group =>   4
Atom  19C    basis set group =>   4
Atom  20H    basis set group =>   5
Atom  21C    basis set group =>   4
Atom  22H    basis set group =>   5
Atom  23H    basis set group =>   5
Atom  24H    basis set group =>   5
Atom  25C    basis set group =>   4
Atom  26C    basis set group =>   4
Atom  27C    basis set group =>   4
Atom  28C    basis set group =>   4
Atom  29H    basis set group =>   5
Atom  30C    basis set group =>   4
Atom  31H    basis set group =>   5
Atom  32H    basis set group =>   5
Atom  33H    basis set group =>   5
Atom  34C    basis set group =>   4
Atom  35H    basis set group =>   5
Atom  36H    basis set group =>   5
Atom  37H    basis set group =>   5
Atom  38C    basis set group =>   4
Atom  39C    basis set group =>   4
Atom  40H    basis set group =>   5
Atom  41H    basis set group =>   5
Atom  42H    basis set group =>   5
Atom  43H    basis set group =>   5
------------------------------------------------------------------------------
                           ORCA GTO INTEGRAL CALCULATION
                           -- RI-GTO INTEGRALS CHOSEN --
------------------------------------------------------------------------------

                         BASIS SET STATISTICS AND STARTUP INFO

Gaussian basis set:
 # of primitive gaussian shells          ...  616
 # of primitive gaussian functions       ... 1310
 # of contracted shells                  ...  348
 # of contracted basis functions         ...  878
 Highest angular momentum                ...    3
 Maximum contraction depth               ...    8
Auxiliary gaussian basis set:
 # of primitive gaussian shells          ...  747
 # of primitive gaussian functions       ... 2037
 # of contracted shells                  ...  468
 # of contracted aux-basis functions     ... 1436
 Highest angular momentum                ...    4
 Maximum contraction depth               ...   12
Ratio of auxiliary to basis functions    ...  1.64
Integral package used                  ... LIBINT
 One Electron integrals                  ... done
 Ordering auxiliary basis shells         ... done
 Integral threshhold             Thresh  ...  1.000e-10
 Primitive cut-off               TCut    ...  1.000e-11
 Pre-screening matrix                    ... done
 Shell pair data                         ... 
 Ordering of the shell pairs             ... done (   0.005 sec) 44031 of 60726 pairs
 Determination of significant pairs      ... done (   0.000 sec)
 Creation of shell pair data             ... done (   0.003 sec)
 Storage of shell pair data              ... done (   0.004 sec)
 Shell pair data done in (   0.012 sec)
 Computing two index integrals           ... done
 Cholesky decomposition of the V-matrix  ... done


Timings:
 Total evaluation time                   ...   0.610 sec (  0.010 min)
 One electron matrix time                ...   0.213 sec (  0.004 min) = 34.9%
 Schwartz matrix evaluation time         ...   0.329 sec (  0.005 min) = 54.0%
 Two index repulsion integral time       ...   0.021 sec (  0.000 min) =  3.5%
 Cholesky decomposition of V             ...   0.024 sec (  0.000 min) =  3.9%
 Three index repulsion integral time     ...   0.000 sec (  0.000 min) =  0.0%

-------------------------------------------------------------------------------
                                 ORCA SCF
-------------------------------------------------------------------------------

------------
SCF SETTINGS
------------
Hamiltonian:
 Density Functional     Method          .... DFT(GTOs)
 Exchange Functional    Exchange        .... B88
   X-Alpha parameter    XAlpha          ....  0.666667
   Becke's b parameter  XBeta           ....  0.004200
 Correlation Functional Correlation     .... P86
 LDA part of GGA corr.  LDAOpt          .... PW91-LDA
 Gradients option       PostSCFGGA      .... off
   Density functional embedding theory  .... OFF
 RI-approximation to the Coulomb term is turned on
   Number of auxiliary basis functions  .... 1436
   RIJ-COSX (HFX calculated with COS-X)).... on


General Settings:
 Integral files         IntName         .... IM1_2F-1_Freq
 Hartree-Fock type      HFTyp           .... UHF
 Total Charge           Charge          ....    1
 Multiplicity           Mult            ....    4
 Number of Electrons    NEL             ....  185
 Basis Dimension        Dim             ....  878
 Nuclear Repulsion      ENuc            ....   2453.1471727977 Eh

Convergence Acceleration:
 DIIS                   CNVDIIS         .... on
   Start iteration      DIISMaxIt       ....    12
   Startup error        DIISStart       ....  0.200000
   # of expansion vecs  DIISMaxEq       ....     5
   Bias factor          DIISBfac        ....   1.050
   Max. coefficient     DIISMaxC        ....  10.000
 Newton-Raphson         CNVNR           .... off
 SOSCF                  CNVSOSCF        .... off
 Level Shifting         CNVShift        .... on
   Level shift para.    LevelShift      ....    0.2500
   Turn off err/grad.   ShiftErr        ....    0.0010
 Zerner damping         CNVZerner       .... off
 Static damping         CNVDamp         .... on
   Fraction old density DampFac         ....    0.7000
   Max. Damping (<1)    DampMax         ....    0.9800
   Min. Damping (>=0)   DampMin         ....    0.0000
   Turn off err/grad.   DampErr         ....    0.1000
 Fernandez-Rico         CNVRico         .... off

SCF Procedure:
 Maximum # iterations   MaxIter         ....   125
 SCF integral mode      SCFMode         .... Direct
   Integral package                     .... LIBINT
 Reset frequency        DirectResetFreq ....    20
 Integral Threshold     Thresh          ....  1.000e-10 Eh
 Primitive CutOff       TCut            ....  1.000e-11 Eh

Convergence Tolerance:
 Convergence Check Mode ConvCheckMode   .... Total+1el-Energy
 Convergence forced     ConvForced      .... 0
 Energy Change          TolE            ....  1.000e-06 Eh
 1-El. energy change                    ....  1.000e-03 Eh
 DIIS Error             TolErr          ....  1.000e-06


Diagonalization of the overlap matrix:
Smallest eigenvalue                        ... 5.716e-06
Time for diagonalization                   ...    0.077 sec
Threshold for overlap eigenvalues          ... 1.000e-08
Number of eigenvalues below threshold      ... 0
Time for construction of square roots      ...    0.051 sec
Total time needed                          ...    0.129 sec

---------------------
INITIAL GUESS: MOREAD
---------------------
Guess MOs are being read from file: IM1_2F-1_Tight.ges
Input Geometry matches current geometry (good)
Atom 0: N(Shells)= 15 and 17 - projection required
Input basis set needs projection
NBasis(read)= 974
NBasis(calc)= 878
Basis set overlap was calculated
Using GuessMode=FMatrix for the initial guess
C*T matrix was formed
Effective Fockian was calculated
Effective Fockian was diagonalized
Initial density was built
C*T matrix was formed
Effective Fockian was calculated
Effective Fockian was diagonalized
Initial density was built
                      ------------------
                      INITIAL GUESS DONE (   0.5 sec)
                      ------------------
-------------------
DFT GRID GENERATION
-------------------

General Integration Accuracy     IntAcc      ...  5.340
Radial Grid Type                 RadialGrid  ... Gauss-Chebyshev
Angular Grid (max. acc.)         AngularGrid ... Lebedev-590
Angular grid pruning method      GridPruning ... 3 (G Style)
Weight generation scheme         WeightScheme... Becke
Basis function cutoff            BFCut       ...    1.0000e-10
Integration weight cutoff        WCut        ...    1.0000e-14
Grids for H and He will be reduced by one unit

# of grid points (after initial pruning)     ... 623684 (   0.4 sec)
# of grid points (after weights+screening)   ... 533678 (   3.5 sec)
nearest neighbour list constructed           ...    0.0 sec
Grid point re-assignment to atoms done       ...    0.0 sec
Grid point division into batches done        ...    3.3 sec
Reduced shell lists constructed in    9.1 sec

Total number of grid points                  ...   533678
Total number of batches                      ...     8362
Average number of points per batch           ...       63
Average number of grid points per atom       ...    12129
Average number of shells per batch           ...   130.14 (37.40%)
Average number of basis functions per batch  ...   314.11 (35.78%)
Average number of large shells per batch     ...    81.83 (62.88%)
Average number of large basis fcns per batch ...   199.85 (63.62%)
Maximum spatial batch extension              ...  21.91, 23.08, 21.87 au
Average spatial batch extension              ...   1.58,  1.61,  1.61 au

Time for grid setup =   12.956 sec

--------------------
COSX GRID GENERATION
--------------------

General Integration Accuracy     IntAcc      ...  3.340
Radial Grid Type                 RadialGrid  ... Gauss-Chebyshev
Angular Grid (max. acc.)         AngularGrid ... Lebedev-50
Angular grid pruning method      GridPruning ... 3 (G Style)
Weight generation scheme         WeightScheme... Becke
Basis function cutoff            BFCut       ...    1.0000e-10
Integration weight cutoff        WCut        ...    1.0000e-14
Grids for H and He will be reduced by one unit

# of grid points (after initial pruning)     ...  20754 (   0.0 sec)
# of grid points (after weights+screening)   ...  18578 (   0.1 sec)
nearest neighbour list constructed           ...    0.0 sec
Grid point re-assignment to atoms done       ...    0.0 sec
Grid point division into batches done        ...    0.0 sec
Reduced shell lists constructed in    0.3 sec

Total number of grid points                  ...    18578
Total number of batches                      ...      315
Average number of points per batch           ...       58
Average number of grid points per atom       ...      422
Average number of shells per batch           ...   167.25 (48.06%)
Average number of basis functions per batch  ...   414.54 (47.21%)
Average number of large shells per batch     ...   109.16 (65.27%)
Average number of large basis fcns per batch ...   272.80 (65.81%)
Maximum spatial batch extension              ...  16.74, 20.68, 20.93 au
Average spatial batch extension              ...   4.30,  4.72,  5.16 au

Overlap Fitting                  UseSFitting ... on
Constructing numerical overlap ... done (      0.2 sec)
Inverting numerical overlap    ... done (      0.0 sec)
Obtaining analytic overlap     ... done (      0.0 sec)
Final contraction and storage  ... done (      0.0 sec)


General Integration Accuracy     IntAcc      ...  3.670
Radial Grid Type                 RadialGrid  ... Gauss-Chebyshev
Angular Grid (max. acc.)         AngularGrid ... Lebedev-50
Angular grid pruning method      GridPruning ... 3 (G Style)
Weight generation scheme         WeightScheme... Becke
Basis function cutoff            BFCut       ...    1.0000e-10
Integration weight cutoff        WCut        ...    1.0000e-14
Grids for H and He will be reduced by one unit

# of grid points (after initial pruning)     ...  26236 (   0.0 sec)
# of grid points (after weights+screening)   ...  23408 (   0.1 sec)
nearest neighbour list constructed           ...    0.0 sec
Grid point re-assignment to atoms done       ...    0.0 sec
Grid point division into batches done        ...    0.0 sec
Reduced shell lists constructed in    0.3 sec

Total number of grid points                  ...    23408
Total number of batches                      ...      383
Average number of points per batch           ...       61
Average number of grid points per atom       ...      532
Average number of shells per batch           ...   163.74 (47.05%)
Average number of basis functions per batch  ...   404.75 (46.10%)
Average number of large shells per batch     ...   105.85 (64.64%)
Average number of large basis fcns per batch ...   263.70 (65.15%)
Maximum spatial batch extension              ...  21.55, 19.54, 22.63 au
Average spatial batch extension              ...   4.16,  4.44,  4.86 au

Overlap Fitting                  UseSFitting ... on
Constructing numerical overlap ... done (      0.3 sec)
Inverting numerical overlap    ... done (      0.0 sec)
Obtaining analytic overlap     ... done (      0.0 sec)
Final contraction and storage  ... done (      0.0 sec)


General Integration Accuracy     IntAcc      ...  4.010
Radial Grid Type                 RadialGrid  ... Gauss-Chebyshev
Angular Grid (max. acc.)         AngularGrid ... Lebedev-110
Angular grid pruning method      GridPruning ... 3 (G Style)
Weight generation scheme         WeightScheme... Becke
Basis function cutoff            BFCut       ...    1.0000e-10
Integration weight cutoff        WCut        ...    1.0000e-14
Grids for H and He will be reduced by one unit

# of grid points (after initial pruning)     ...  49682 (   0.0 sec)
# of grid points (after weights+screening)   ...  44038 (   0.3 sec)
nearest neighbour list constructed           ...    0.0 sec
Grid point re-assignment to atoms done       ...    0.0 sec
Grid point division into batches done        ...    0.0 sec
Reduced shell lists constructed in    0.6 sec

Total number of grid points                  ...    44038
Total number of batches                      ...      712
Average number of points per batch           ...       61
Average number of grid points per atom       ...     1001
Average number of shells per batch           ...   156.17 (44.88%)
Average number of basis functions per batch  ...   384.79 (43.83%)
Average number of large shells per batch     ...   101.06 (64.71%)
Average number of large basis fcns per batch ...   251.13 (65.26%)
Maximum spatial batch extension              ...  20.74, 22.47, 20.69 au
Average spatial batch extension              ...   3.47,  3.63,  3.84 au

Overlap Fitting                  UseSFitting ... on
Constructing numerical overlap ... done (      0.5 sec)
Inverting numerical overlap    ... done (      0.0 sec)
Obtaining analytic overlap     ... done (      0.0 sec)
Final contraction and storage  ... done (      0.0 sec)

Time for X-Grid setup             =    2.936 sec
--------------
SCF ITERATIONS
--------------
ITER       Energy         Delta-E        Max-DP      RMS-DP      [F,P]     Damp
               ***  Starting incremental Fock matrix formation  ***
  0  -2003.6912739182   0.000000000000 0.00059628  0.00000364  0.0002306 0.7000
  1  -2003.6912738088   0.000000109460 0.00053351  0.00000367  0.0001017 0.7000
                               ***Turning on DIIS***
  2  -2003.6912735657   0.000000243079 0.00157973  0.00001461  0.0000340 0.0000
  3  -2003.6912736502  -0.000000084546 0.00017731  0.00000193  0.0001042 0.0000
  4  -2003.6912735179   0.000000132289 0.00010129  0.00000101  0.0001813 0.0000
  5  -2003.6912740748  -0.000000556914 0.00047530  0.00000327  0.0000254 0.0000
                 **** Energy Check signals convergence ****

               *****************************************************
               *                     SUCCESS                       *
               *           SCF CONVERGED AFTER   6 CYCLES          *
               *****************************************************

Setting up the final grid:

General Integration Accuracy     IntAcc      ...  5.340
Radial Grid Type                 RadialGrid  ... Gauss-Chebyshev
Angular Grid (max. acc.)         AngularGrid ... Lebedev-590
Angular grid pruning method      GridPruning ... 3 (G Style)
Weight generation scheme         WeightScheme... Becke
Basis function cutoff            BFCut       ...    1.0000e-10
Integration weight cutoff        WCut        ...    1.0000e-14
Grids for H and He will be reduced by one unit

# of grid points (after initial pruning)     ... 623684 (   0.2 sec)
# of grid points (after weights+screening)   ... 533678 (   3.5 sec)
nearest neighbour list constructed           ...    0.0 sec
Grid point re-assignment to atoms done       ...    0.0 sec
Grid point division into batches done        ...    3.3 sec
Reduced shell lists constructed in    9.2 sec

Total number of grid points                  ...   533678
Total number of batches                      ...     8362
Average number of points per batch           ...       63
Average number of grid points per atom       ...    12129
Average number of shells per batch           ...   130.14 (37.40%)
Average number of basis functions per batch  ...   314.11 (35.78%)
Average number of large shells per batch     ...    81.83 (62.88%)
Average number of large basis fcns per batch ...   199.85 (63.62%)
Maximum spatial batch extension              ...  21.91, 23.08, 21.87 au
Average spatial batch extension              ...   1.58,  1.61,  1.61 au

Final grid set up in   12.9 sec
Final integration                            ... done (  24.9 sec)
Change in XC energy                          ...     0.000000008
Integrated number of electrons               ...   184.999899641
Previous integrated no of electrons          ...   184.999899661

----------------
TOTAL SCF ENERGY
----------------

Total Energy       :        -2003.69127392 Eh          -54523.21147 eV

Components:
Nuclear Repulsion  :         2453.14717280 Eh           66753.52826 eV
Electronic Energy  :        -4456.83844671 Eh         -121276.73973 eV
One Electron Energy:        -7593.66444438 Eh         -206634.11461 eV
Two Electron Energy:         3136.82599767 Eh           85357.37488 eV

Virial components:
Potential Energy   :        -4000.94797067 Eh         -108871.32919 eV
Kinetic Energy     :         1997.25669676 Eh           54348.11772 eV
Virial Ratio       :            2.00322171


DFT components:
N(Alpha)           :       93.999950036001 electrons
N(Beta)            :       90.999949605301 electrons
N(Total)           :      184.999899641302 electrons
E(X)               :     -180.054819250298 Eh       
E(C)               :       -7.048456454812 Eh       
E(XC)              :     -187.103275705110 Eh       
DFET-embed. en.    :        0.000000000000 Eh       

---------------
SCF CONVERGENCE
---------------

  Last Energy change         ...    1.5056e-07  Tolerance :   1.0000e-06
  Last MAX-Density change    ...    2.6717e-04  Tolerance :   1.0000e-05
  Last RMS-Density change    ...    1.7158e-06  Tolerance :   1.0000e-06
  Last DIIS Error            ...    1.3429e-05  Tolerance :   1.0000e-06

             **** THE GBW FILE WAS UPDATED (IM1_2F-1_Freq.gbw) ****
             **** DENSITY FILE WAS UPDATED (IM1_2F-1_Freq.scfp) ****
             **** ENERGY FILE WAS UPDATED (IM1_2F-1_Freq.en.tmp) ****
----------------------
UHF SPIN CONTAMINATION
----------------------

Warning: in a DFT calculation there is little theoretical justification to 
         calculate <S**2> as in Hartree-Fock theory. We will do it anyways
         but you should keep in mind that the values have only limited relevance

Expectation value of <S**2>     :     3.811824
Ideal value S*(S+1) for S=1.5   :     3.750000
Deviation                       :     0.061824

             **** THE GBW FILE WAS UPDATED (IM1_2F-1_Freq.gbw) ****
             **** DENSITY FILE WAS UPDATED (IM1_2F-1_Freq.scfp) ****
----------------
ORBITAL ENERGIES
----------------
                 SPIN UP ORBITALS
  NO   OCC          E(Eh)            E(eV) 
   0   1.0000    -214.697846     -5842.2254 
   1   1.0000     -24.431177      -664.8061 
   2   1.0000     -20.796190      -565.8931 
   3   1.0000     -20.794835      -565.8562 
   4   1.0000     -20.791402      -565.7628 
   5   1.0000     -18.984830      -516.6035 
   6   1.0000     -14.160915      -385.3381 
   7   1.0000     -14.139662      -384.7598 
   8   1.0000     -10.096139      -274.7299 
   9   1.0000     -10.094954      -274.6977 
  10   1.0000     -10.084908      -274.4243 
  11   1.0000     -10.070583      -274.0345 
  12   1.0000     -10.057744      -273.6851 
  13   1.0000     -10.054629      -273.6004 
  14   1.0000     -10.052698      -273.5478 
  15   1.0000     -10.047458      -273.4052 
  16   1.0000     -10.035784      -273.0876 
  17   1.0000     -10.034592      -273.0551 
  18   1.0000     -10.029618      -272.9198 
  19   1.0000     -10.029323      -272.9118 
  20   1.0000     -10.028507      -272.8895 
  21   1.0000     -10.027686      -272.8672 
  22   1.0000     -10.024540      -272.7816 
  23   1.0000     -10.022002      -272.7125 
  24   1.0000     -10.021043      -272.6864 
  25   1.0000     -10.018551      -272.6186 
  26   1.0000     -10.009951      -272.3846 
  27   1.0000      -9.993279      -271.9309 
  28   1.0000      -2.909196       -79.1633 
  29   1.0000      -1.903710       -51.8026 
  30   1.0000      -1.901451       -51.7411 
  31   1.0000      -1.892676       -51.5023 
  32   1.0000      -1.145910       -31.1818 
  33   1.0000      -1.015647       -27.6372 
  34   1.0000      -0.988163       -26.8893 
  35   1.0000      -0.917485       -24.9660 
  36   1.0000      -0.901956       -24.5435 
  37   1.0000      -0.852514       -23.1981 
  38   1.0000      -0.838724       -22.8228 
  39   1.0000      -0.820636       -22.3306 
  40   1.0000      -0.812671       -22.1139 
  41   1.0000      -0.812028       -22.0964 
  42   1.0000      -0.795641       -21.6505 
  43   1.0000      -0.775766       -21.1097 
  44   1.0000      -0.724458       -19.7135 
  45   1.0000      -0.719223       -19.5711 
  46   1.0000      -0.711451       -19.3596 
  47   1.0000      -0.686551       -18.6820 
  48   1.0000      -0.677299       -18.4302 
  49   1.0000      -0.668450       -18.1895 
  50   1.0000      -0.657788       -17.8993 
  51   1.0000      -0.645757       -17.5719 
  52   1.0000      -0.624089       -16.9823 
  53   1.0000      -0.611060       -16.6278 
  54   1.0000      -0.602829       -16.4038 
  55   1.0000      -0.588888       -16.0244 
  56   1.0000      -0.582694       -15.8559 
  57   1.0000      -0.574966       -15.6456 
  58   1.0000      -0.567067       -15.4307 
  59   1.0000      -0.560916       -15.2633 
  60   1.0000      -0.534004       -14.5310 
  61   1.0000      -0.530936       -14.4475 
  62   1.0000      -0.527376       -14.3506 
  63   1.0000      -0.521470       -14.1899 
  64   1.0000      -0.518957       -14.1215 
  65   1.0000      -0.516036       -14.0421 
  66   1.0000      -0.511067       -13.9068 
  67   1.0000      -0.499496       -13.5920 
  68   1.0000      -0.498940       -13.5769 
  69   1.0000      -0.474760       -12.9189 
  70   1.0000      -0.473142       -12.8749 
  71   1.0000      -0.471383       -12.8270 
  72   1.0000      -0.468513       -12.7489 
  73   1.0000      -0.464553       -12.6411 
  74   1.0000      -0.461911       -12.5692 
  75   1.0000      -0.460124       -12.5206 
  76   1.0000      -0.458868       -12.4864 
  77   1.0000      -0.447222       -12.1695 
  78   1.0000      -0.442737       -12.0475 
  79   1.0000      -0.440512       -11.9869 
  80   1.0000      -0.435866       -11.8605 
  81   1.0000      -0.430862       -11.7243 
  82   1.0000      -0.423704       -11.5296 
  83   1.0000      -0.417949       -11.3730 
  84   1.0000      -0.374264       -10.1842 
  85   1.0000      -0.366125        -9.9628 
  86   1.0000      -0.363659        -9.8957 
  87   1.0000      -0.362353        -9.8601 
  88   1.0000      -0.358636        -9.7590 
  89   1.0000      -0.345231        -9.3942 
  90   1.0000      -0.338242        -9.2040 
  91   1.0000      -0.332782        -9.0555 
  92   1.0000      -0.316157        -8.6031 
  93   1.0000      -0.300565        -8.1788 
  94   0.0000      -0.248480        -6.7615 
  95   0.0000      -0.219026        -5.9600 
  96   0.0000      -0.209893        -5.7115 
  97   0.0000      -0.177534        -4.8309 
  98   0.0000      -0.175974        -4.7885 
  99   0.0000      -0.172666        -4.6985 
 100   0.0000      -0.160803        -4.3757 
 101   0.0000      -0.141793        -3.8584 
 102   0.0000      -0.111422        -3.0319 
 103   0.0000      -0.104063        -2.8317 
 104   0.0000      -0.096459        -2.6248 
 105   0.0000      -0.087584        -2.3833 
 106   0.0000      -0.075336        -2.0500 
 107   0.0000      -0.073405        -1.9975 
 108   0.0000      -0.072965        -1.9855 
 109   0.0000      -0.070019        -1.9053 
 110   0.0000      -0.057597        -1.5673 
 111   0.0000      -0.049379        -1.3437 
 112   0.0000      -0.039836        -1.0840 
 113   0.0000      -0.037545        -1.0217 
 114   0.0000      -0.034964        -0.9514 
 115   0.0000      -0.029375        -0.7993 
 116   0.0000      -0.025463        -0.6929 
 117   0.0000      -0.022582        -0.6145 
 118   0.0000      -0.020133        -0.5478 
 119   0.0000      -0.015539        -0.4228 
 120   0.0000      -0.012471        -0.3394 
 121   0.0000      -0.010361        -0.2819 
 122   0.0000      -0.008783        -0.2390 
 123   0.0000      -0.007690        -0.2092 
 124   0.0000      -0.005989        -0.1630 
 125   0.0000       0.000124         0.0034 
 126   0.0000       0.003788         0.1031 
 127   0.0000       0.010092         0.2746 
 128   0.0000       0.017854         0.4858 
 129   0.0000       0.022960         0.6248 
 130   0.0000       0.026924         0.7326 
 131   0.0000       0.028344         0.7713 
 132   0.0000       0.032558         0.8860 
 133   0.0000       0.036239         0.9861 
 134   0.0000       0.041914         1.1405 
 135   0.0000       0.047304         1.2872 
 136   0.0000       0.050355         1.3702 
 137   0.0000       0.055327         1.5055 
 138   0.0000       0.058546         1.5931 
 139   0.0000       0.061479         1.6729 
 140   0.0000       0.070107         1.9077 
 141   0.0000       0.074732         2.0336 
 142   0.0000       0.075894         2.0652 
 143   0.0000       0.077053         2.0967 
 144   0.0000       0.082274         2.2388 
 145   0.0000       0.085532         2.3275 
 146   0.0000       0.093220         2.5367 
 147   0.0000       0.095095         2.5877 
 148   0.0000       0.098019         2.6672 
 149   0.0000       0.104525         2.8443 
 150   0.0000       0.107748         2.9320 
 151   0.0000       0.112765         3.0685 
 152   0.0000       0.115696         3.1483 
 153   0.0000       0.119242         3.2447 
 154   0.0000       0.121073         3.2946 
 155   0.0000       0.127396         3.4666 
 156   0.0000       0.130382         3.5479 
 157   0.0000       0.133183         3.6241 
 158   0.0000       0.135183         3.6785 
 159   0.0000       0.140912         3.8344 
 160   0.0000       0.145508         3.9595 
 161   0.0000       0.151176         4.1137 
 162   0.0000       0.153316         4.1719 
 163   0.0000       0.157613         4.2889 
 164   0.0000       0.158714         4.3188 
 165   0.0000       0.164974         4.4892 
 166   0.0000       0.171010         4.6534 
 167   0.0000       0.171646         4.6707 
 168   0.0000       0.176717         4.8087 
 169   0.0000       0.177938         4.8419 
 170   0.0000       0.182600         4.9688 
 171   0.0000       0.186145         5.0653 
 172   0.0000       0.188456         5.1282 
 173   0.0000       0.191968         5.2237 
 174   0.0000       0.195962         5.3324 
 175   0.0000       0.200179         5.4471 
 176   0.0000       0.211086         5.7439 
 177   0.0000       0.213679         5.8145 
 178   0.0000       0.216128         5.8811 
 179   0.0000       0.218245         5.9388 
 180   0.0000       0.222989         6.0678 
 181   0.0000       0.225229         6.1288 
 182   0.0000       0.227321         6.1857 
 183   0.0000       0.232019         6.3136 
 184   0.0000       0.235222         6.4007 
 185   0.0000       0.245939         6.6923 
 186   0.0000       0.246356         6.7037 
 187   0.0000       0.250097         6.8055 
 188   0.0000       0.257425         7.0049 
 189   0.0000       0.258824         7.0430 
 190   0.0000       0.261592         7.1183 
 191   0.0000       0.268658         7.3106 
 192   0.0000       0.273082         7.4309 
 193   0.0000       0.279016         7.5924 
 194   0.0000       0.282586         7.6895 
 195   0.0000       0.285917         7.7802 
 196   0.0000       0.287892         7.8340 
 197   0.0000       0.289620         7.8810 
 198   0.0000       0.293314         7.9815 
 199   0.0000       0.298178         8.1138 
 200   0.0000       0.299448         8.1484 
 201   0.0000       0.301324         8.1994 
 202   0.0000       0.304814         8.2944 
 203   0.0000       0.309739         8.4284 
 204   0.0000       0.310990         8.4625 
 205   0.0000       0.317434         8.6378 
 206   0.0000       0.318273         8.6606 
 207   0.0000       0.320302         8.7159 
 208   0.0000       0.326628         8.8880 
 209   0.0000       0.329501         8.9662 
 210   0.0000       0.334503         9.1023 
 211   0.0000       0.337256         9.1772 
 212   0.0000       0.340710         9.2712 
 213   0.0000       0.342579         9.3220 
 214   0.0000       0.347677         9.4608 
 215   0.0000       0.349643         9.5143 
 216   0.0000       0.352021         9.5790 
 217   0.0000       0.355337         9.6692 
 218   0.0000       0.357314         9.7230 
 219   0.0000       0.361273         9.8307 
 220   0.0000       0.365479         9.9452 
 221   0.0000       0.372868        10.1462 
 222   0.0000       0.377572        10.2743 
 223   0.0000       0.378919        10.3109 
 224   0.0000       0.380919        10.3653 
 225   0.0000       0.386854        10.5268 
 226   0.0000       0.389131        10.5888 
 227   0.0000       0.394841        10.7442 
 228   0.0000       0.400618        10.9014 
 229   0.0000       0.406881        11.0718 
 230   0.0000       0.412619        11.2279 
 231   0.0000       0.415276        11.3002 
 232   0.0000       0.423445        11.5225 
 233   0.0000       0.424844        11.5606 
 234   0.0000       0.428761        11.6672 
 235   0.0000       0.438602        11.9350 
 236   0.0000       0.443571        12.0702 
 237   0.0000       0.449082        12.2201 
 238   0.0000       0.454054        12.3554 
 239   0.0000       0.456108        12.4113 
 240   0.0000       0.468873        12.7587 
 241   0.0000       0.470439        12.8013 
 242   0.0000       0.480520        13.0756 
 243   0.0000       0.485996        13.2246 
 244   0.0000       0.492332        13.3970 
 245   0.0000       0.494766        13.4633 
 246   0.0000       0.501928        13.6581 
 247   0.0000       0.505329        13.7507 
 248   0.0000       0.513448        13.9716 
 249   0.0000       0.514204        13.9922 
 250   0.0000       0.518298        14.1036 
 251   0.0000       0.524631        14.2759 
 252   0.0000       0.530290        14.4299 
 253   0.0000       0.535330        14.5671 
 254   0.0000       0.537380        14.6229 
 255   0.0000       0.546128        14.8609 
 256   0.0000       0.550866        14.9898 
 257   0.0000       0.551481        15.0066 
 258   0.0000       0.556678        15.1480 
 259   0.0000       0.562583        15.3087 
 260   0.0000       0.573125        15.5955 
 261   0.0000       0.578700        15.7472 
 262   0.0000       0.580966        15.8089 
 263   0.0000       0.584691        15.9102 
 264   0.0000       0.591189        16.0871 
 265   0.0000       0.595543        16.2055 
 266   0.0000       0.603374        16.4186 
 267   0.0000       0.606425        16.5017 
 268   0.0000       0.617760        16.8101 
 269   0.0000       0.619848        16.8669 
 270   0.0000       0.620008        16.8713 
 271   0.0000       0.629667        17.1341 
 272   0.0000       0.634813        17.2741 
 273   0.0000       0.637198        17.3390 
 274   0.0000       0.641251        17.4493 
 275   0.0000       0.647172        17.6104 
 276   0.0000       0.650570        17.7029 
 277   0.0000       0.655499        17.8370 
 278   0.0000       0.658703        17.9242 
 279   0.0000       0.669627        18.2215 
 280   0.0000       0.674563        18.3558 
 281   0.0000       0.678870        18.4730 
 282   0.0000       0.685722        18.6594 
 283   0.0000       0.691170        18.8077 
 284   0.0000       0.704950        19.1827 
 285   0.0000       0.706039        19.2123 
 286   0.0000       0.712154        19.3787 
 287   0.0000       0.717264        19.5178 
 288   0.0000       0.724692        19.7199 
 289   0.0000       0.738311        20.0905 
 290   0.0000       0.740549        20.1514 
 291   0.0000       0.748136        20.3578 
 292   0.0000       0.748636        20.3714 
 293   0.0000       0.762135        20.7388 
 294   0.0000       0.772623        21.0241 
 295   0.0000       0.777413        21.1545 
 296   0.0000       0.781348        21.2616 
 297   0.0000       0.784085        21.3360 
 298   0.0000       0.793854        21.6019 
 299   0.0000       0.806962        21.9586 
 300   0.0000       0.811947        22.0942 
 301   0.0000       0.818460        22.2714 
 302   0.0000       0.822790        22.3893 
 303   0.0000       0.831115        22.6158 
 304   0.0000       0.834879        22.7182 
 305   0.0000       0.843401        22.9501 
 306   0.0000       0.851699        23.1759 
 307   0.0000       0.854335        23.2476 
 308   0.0000       0.861084        23.4313 
 309   0.0000       0.864472        23.5235 
 310   0.0000       0.872798        23.7500 
 311   0.0000       0.875883        23.8340 
 312   0.0000       0.897519        24.4227 
 313   0.0000       0.901653        24.5352 
 314   0.0000       0.906973        24.6800 
 315   0.0000       0.910222        24.7684 
 316   0.0000       0.915118        24.9016 
 317   0.0000       0.916899        24.9501 
 318   0.0000       0.922832        25.1115 
 319   0.0000       0.928633        25.2694 
 320   0.0000       0.935700        25.4617 
 321   0.0000       0.946205        25.7476 
 322   0.0000       0.947597        25.7854 
 323   0.0000       0.954606        25.9761 
 324   0.0000       0.966139        26.2900 
 325   0.0000       0.970756        26.4156 
 326   0.0000       0.976795        26.5800 
 327   0.0000       0.984092        26.7785 
 328   0.0000       0.990287        26.9471 
 329   0.0000       0.997988        27.1566 
 330   0.0000       1.001972        27.2650 
 331   0.0000       1.008291        27.4370 
 332   0.0000       1.010959        27.5096 
 333   0.0000       1.024684        27.8831 
 334   0.0000       1.031028        28.0557 
 335   0.0000       1.033692        28.1282 
 336   0.0000       1.039200        28.2781 
 337   0.0000       1.048795        28.5392 
 338   0.0000       1.058754        28.8102 
 339   0.0000       1.061936        28.8967 
 340   0.0000       1.063051        28.9271 
 341   0.0000       1.066394        29.0180 
 342   0.0000       1.071308        29.1518 
 343   0.0000       1.078500        29.3475 
 344   0.0000       1.085939        29.5499 
 345   0.0000       1.091198        29.6930 
 346   0.0000       1.093037        29.7430 
 347   0.0000       1.099104        29.9081 
 348   0.0000       1.102088        29.9893 
 349   0.0000       1.113369        30.2963 
 350   0.0000       1.120385        30.4872 
 351   0.0000       1.122064        30.5329 
 352   0.0000       1.125675        30.6312 
 353   0.0000       1.140238        31.0275 
 354   0.0000       1.147666        31.2296 
 355   0.0000       1.162279        31.6272 
 356   0.0000       1.169937        31.8356 
 357   0.0000       1.178040        32.0561 
 358   0.0000       1.183549        32.2060 
 359   0.0000       1.189564        32.3697 
 360   0.0000       1.210434        32.9376 
 361   0.0000       1.218388        33.1540 
 362   0.0000       1.221728        33.2449 
 363   0.0000       1.236389        33.6438 
 364   0.0000       1.239272        33.7223 
 365   0.0000       1.241140        33.7731 
 366   0.0000       1.256636        34.1948 
 367   0.0000       1.260800        34.3081 
 368   0.0000       1.271671        34.6039 
 369   0.0000       1.274929        34.6926 
 370   0.0000       1.286206        34.9994 
 371   0.0000       1.291371        35.1400 
 372   0.0000       1.299202        35.3531 
 373   0.0000       1.300335        35.3839 
 374   0.0000       1.309228        35.6259 
 375   0.0000       1.312594        35.7175 
 376   0.0000       1.318615        35.8813 
 377   0.0000       1.328793        36.1583 
 378   0.0000       1.334049        36.3013 
 379   0.0000       1.339185        36.4411 
 380   0.0000       1.343140        36.5487 
 381   0.0000       1.350998        36.7625 
 382   0.0000       1.356934        36.9240 
 383   0.0000       1.359254        36.9872 
 384   0.0000       1.365884        37.1676 
 385   0.0000       1.371464        37.3194 
 386   0.0000       1.379965        37.5508 
 387   0.0000       1.391221        37.8571 
 388   0.0000       1.394755        37.9532 
 389   0.0000       1.397423        38.0258 
 390   0.0000       1.407999        38.3136 
 391   0.0000       1.411982        38.4220 
 392   0.0000       1.418785        38.6071 
 393   0.0000       1.421029        38.6682 
 394   0.0000       1.425829        38.7988 
 395   0.0000       1.428280        38.8655 
 396   0.0000       1.429414        38.8963 
 397   0.0000       1.442718        39.2584 
 398   0.0000       1.444214        39.2991 
 399   0.0000       1.448031        39.4029 
 400   0.0000       1.456468        39.6325 
 401   0.0000       1.462262        39.7902 
 402   0.0000       1.465343        39.8740 
 403   0.0000       1.470839        40.0236 
 404   0.0000       1.475915        40.1617 
 405   0.0000       1.482475        40.3402 
 406   0.0000       1.486449        40.4483 
 407   0.0000       1.493069        40.6285 
 408   0.0000       1.501458        40.8568 
 409   0.0000       1.506601        40.9967 
 410   0.0000       1.510547        41.1041 
 411   0.0000       1.520896        41.3857 
 412   0.0000       1.521591        41.4046 
 413   0.0000       1.531844        41.6836 
 414   0.0000       1.539034        41.8793 
 415   0.0000       1.546279        42.0764 
 416   0.0000       1.548074        42.1252 
 417   0.0000       1.551198        42.2103 
 418   0.0000       1.555027        42.3144 
 419   0.0000       1.559311        42.4310 
 420   0.0000       1.563160        42.5357 
 421   0.0000       1.564836        42.5813 
 422   0.0000       1.575106        42.8608 
 423   0.0000       1.583108        43.0786 
 424   0.0000       1.598580        43.4996 
 425   0.0000       1.602655        43.6105 
 426   0.0000       1.610327        43.8192 
 427   0.0000       1.614157        43.9234 
 428   0.0000       1.621126        44.1131 
 429   0.0000       1.628564        44.3155 
 430   0.0000       1.632237        44.4154 
 431   0.0000       1.645263        44.7699 
 432   0.0000       1.652111        44.9562 
 433   0.0000       1.653276        44.9879 
 434   0.0000       1.658170        45.1211 
 435   0.0000       1.668978        45.4152 
 436   0.0000       1.681976        45.7689 
 437   0.0000       1.689601        45.9764 
 438   0.0000       1.692852        46.0648 
 439   0.0000       1.703909        46.3657 
 440   0.0000       1.713574        46.6287 
 441   0.0000       1.727336        47.0032 
 442   0.0000       1.740375        47.3580 
 443   0.0000       1.742588        47.4182 
 444   0.0000       1.762643        47.9639 
 445   0.0000       1.765936        48.0536 
 446   0.0000       1.772315        48.2271 
 447   0.0000       1.780772        48.4573 
 448   0.0000       1.795971        48.8709 
 449   0.0000       1.799352        48.9629 
 450   0.0000       1.810771        49.2736 
 451   0.0000       1.820792        49.5463 
 452   0.0000       1.828850        49.7656 
 453   0.0000       1.837346        49.9967 
 454   0.0000       1.841407        50.1072 
 455   0.0000       1.852923        50.4206 
 456   0.0000       1.862572        50.6831 
 457   0.0000       1.866175        50.7812 
 458   0.0000       1.874632        51.0113 
 459   0.0000       1.882362        51.2217 
 460   0.0000       1.886224        51.3268 
 461   0.0000       1.894998        51.5655 
 462   0.0000       1.901488        51.7421 
 463   0.0000       1.910713        51.9931 
 464   0.0000       1.914368        52.0926 
 465   0.0000       1.920830        52.2685 
 466   0.0000       1.931423        52.5567 
 467   0.0000       1.945354        52.9358 
 468   0.0000       1.948822        53.0301 
 469   0.0000       1.953685        53.1625 
 470   0.0000       1.958707        53.2991 
 471   0.0000       1.962821        53.4111 
 472   0.0000       1.974462        53.7278 
 473   0.0000       1.980437        53.8904 
 474   0.0000       1.985143        54.0185 
 475   0.0000       2.000813        54.4449 
 476   0.0000       2.004618        54.5484 
 477   0.0000       2.006640        54.6034 
 478   0.0000       2.023073        55.0506 
 479   0.0000       2.030250        55.2459 
 480   0.0000       2.038617        55.4736 
 481   0.0000       2.042085        55.5680 
 482   0.0000       2.052684        55.8564 
 483   0.0000       2.057403        55.9848 
 484   0.0000       2.065934        56.2169 
 485   0.0000       2.082250        56.6609 
 486   0.0000       2.086386        56.7735 
 487   0.0000       2.096590        57.0511 
 488   0.0000       2.104969        57.2791 
 489   0.0000       2.107025        57.3351 
 490   0.0000       2.114524        57.5391 
 491   0.0000       2.122860        57.7660 
 492   0.0000       2.130364        57.9702 
 493   0.0000       2.144391        58.3518 
 494   0.0000       2.151825        58.5541 
 495   0.0000       2.154695        58.6322 
 496   0.0000       2.172451        59.1154 
 497   0.0000       2.178933        59.2918 
 498   0.0000       2.189432        59.5775 
 499   0.0000       2.199670        59.8561 
 500   0.0000       2.210881        60.1611 
 501   0.0000       2.219574        60.3977 
 502   0.0000       2.232594        60.7520 
 503   0.0000       2.237374        60.8821 
 504   0.0000       2.238024        60.8997 
 505   0.0000       2.252532        61.2945 
 506   0.0000       2.258835        61.4660 
 507   0.0000       2.274210        61.8844 
 508   0.0000       2.277614        61.9770 
 509   0.0000       2.288129        62.2632 
 510   0.0000       2.294320        62.4316 
 511   0.0000       2.298308        62.5401 
 512   0.0000       2.309204        62.8366 
 513   0.0000       2.326119        63.2969 
 514   0.0000       2.327846        63.3439 
 515   0.0000       2.331827        63.4523 
 516   0.0000       2.340069        63.6765 
 517   0.0000       2.354779        64.0768 
 518   0.0000       2.363671        64.3188 
 519   0.0000       2.364598        64.3440 
 520   0.0000       2.371539        64.5329 
 521   0.0000       2.379025        64.7366 
 522   0.0000       2.380761        64.7838 
 523   0.0000       2.393860        65.1402 
 524   0.0000       2.398458        65.2654 
 525   0.0000       2.405913        65.4682 
 526   0.0000       2.410425        65.5910 
 527   0.0000       2.411571        65.6222 
 528   0.0000       2.419490        65.8377 
 529   0.0000       2.428546        66.0841 
 530   0.0000       2.429933        66.1218 
 531   0.0000       2.433684        66.2239 
 532   0.0000       2.438319        66.3500 
 533   0.0000       2.441797        66.4447 
 534   0.0000       2.447084        66.5885 
 535   0.0000       2.447875        66.6101 
 536   0.0000       2.455116        66.8071 
 537   0.0000       2.462303        67.0027 
 538   0.0000       2.465404        67.0870 
 539   0.0000       2.469303        67.1931 
 540   0.0000       2.480552        67.4992 
 541   0.0000       2.482273        67.5461 
 542   0.0000       2.485258        67.6273 
 543   0.0000       2.495381        67.9028 
 544   0.0000       2.499501        68.0149 
 545   0.0000       2.509072        68.2753 
 546   0.0000       2.511134        68.3314 
 547   0.0000       2.518903        68.5428 
 548   0.0000       2.521001        68.5999 
 549   0.0000       2.523786        68.6757 
 550   0.0000       2.528556        68.8055 
 551   0.0000       2.541301        69.1523 
 552   0.0000       2.544494        69.2392 
 553   0.0000       2.550046        69.3903 
 554   0.0000       2.557891        69.6038 
 555   0.0000       2.561465        69.7010 
 556   0.0000       2.567342        69.8609 
 557   0.0000       2.571078        69.9626 
 558   0.0000       2.574026        70.0428 
 559   0.0000       2.581521        70.2468 
 560   0.0000       2.585311        70.3499 
 561   0.0000       2.593722        70.5788 
 562   0.0000       2.599398        70.7332 
 563   0.0000       2.612266        71.0834 
 564   0.0000       2.613968        71.1297 
 565   0.0000       2.618470        71.2522 
 566   0.0000       2.626236        71.4635 
 567   0.0000       2.634730        71.6946 
 568   0.0000       2.644633        71.9641 
 569   0.0000       2.648500        72.0694 
 570   0.0000       2.652000        72.1646 
 571   0.0000       2.658533        72.3424 
 572   0.0000       2.660834        72.4050 
 573   0.0000       2.669462        72.6397 
 574   0.0000       2.672321        72.7176 
 575   0.0000       2.681180        72.9586 
 576   0.0000       2.684235        73.0418 
 577   0.0000       2.692456        73.2655 
 578   0.0000       2.696944        73.3876 
 579   0.0000       2.700545        73.4856 
 580   0.0000       2.713263        73.8317 
 581   0.0000       2.719940        74.0133 
 582   0.0000       2.723136        74.1003 
 583   0.0000       2.728766        74.2535 
 584   0.0000       2.732360        74.3513 
 585   0.0000       2.743585        74.6567 
 586   0.0000       2.752939        74.9113 
 587   0.0000       2.757731        75.0417 
 588   0.0000       2.759379        75.0865 
 589   0.0000       2.761975        75.1571 
 590   0.0000       2.770892        75.3998 
 591   0.0000       2.776839        75.5616 
 592   0.0000       2.781891        75.6991 
 593   0.0000       2.786573        75.8265 
 594   0.0000       2.798256        76.1444 
 595   0.0000       2.805423        76.3394 
 596   0.0000       2.806505        76.3689 
 597   0.0000       2.816339        76.6365 
 598   0.0000       2.818598        76.6979 
 599   0.0000       2.832876        77.0865 
 600   0.0000       2.842915        77.3597 
 601   0.0000       2.851443        77.5917 
 602   0.0000       2.854475        77.6742 
 603   0.0000       2.861764        77.8726 
 604   0.0000       2.868237        78.0487 
 605   0.0000       2.875449        78.2449 
 606   0.0000       2.878525        78.3287 
 607   0.0000       2.886557        78.5472 
 608   0.0000       2.896433        78.8159 
 609   0.0000       2.901233        78.9466 
 610   0.0000       2.910453        79.1975 
 611   0.0000       2.914402        79.3049 
 612   0.0000       2.917405        79.3866 
 613   0.0000       2.920229        79.4635 
 614   0.0000       2.924488        79.5794 
 615   0.0000       2.931755        79.7771 
 616   0.0000       2.935531        79.8799 
 617   0.0000       2.938904        79.9716 
 618   0.0000       2.940867        80.0250 
 619   0.0000       2.948007        80.2194 
 620   0.0000       2.950474        80.2865 
 621   0.0000       2.954139        80.3862 
 622   0.0000       2.956621        80.4538 
 623   0.0000       2.960879        80.5696 
 624   0.0000       2.969927        80.8158 
 625   0.0000       2.970525        80.8321 
 626   0.0000       2.978438        81.0474 
 627   0.0000       2.985324        81.2348 
 628   0.0000       2.991241        81.3958 
 629   0.0000       3.001107        81.6643 
 630   0.0000       3.004879        81.7669 
 631   0.0000       3.008398        81.8627 
 632   0.0000       3.013690        82.0067 
 633   0.0000       3.021495        82.2190 
 634   0.0000       3.027751        82.3893 
 635   0.0000       3.043083        82.8065 
 636   0.0000       3.047857        82.9364 
 637   0.0000       3.053781        83.0976 
 638   0.0000       3.059063        83.2413 
 639   0.0000       3.064666        83.3938 
 640   0.0000       3.066512        83.4440 
 641   0.0000       3.071809        83.5882 
 642   0.0000       3.077698        83.7484 
 643   0.0000       3.085314        83.9557 
 644   0.0000       3.087402        84.0125 
 645   0.0000       3.093214        84.1706 
 646   0.0000       3.095069        84.2211 
 647   0.0000       3.110043        84.6286 
 648   0.0000       3.112004        84.6819 
 649   0.0000       3.115538        84.7781 
 650   0.0000       3.123032        84.9820 
 651   0.0000       3.127991        85.1170 
 652   0.0000       3.131054        85.2003 
 653   0.0000       3.135937        85.3332 
 654   0.0000       3.138146        85.3933 
 655   0.0000       3.143790        85.5469 
 656   0.0000       3.153183        85.8025 
 657   0.0000       3.160790        86.0095 
 658   0.0000       3.162751        86.0628 
 659   0.0000       3.166709        86.1705 
 660   0.0000       3.168925        86.2308 
 661   0.0000       3.173491        86.3551 
 662   0.0000       3.177983        86.4773 
 663   0.0000       3.180369        86.5422 
 664   0.0000       3.189605        86.7936 
 665   0.0000       3.193823        86.9083 
 666   0.0000       3.197739        87.0149 
 667   0.0000       3.206101        87.2424 
 668   0.0000       3.209325        87.3302 
 669   0.0000       3.221471        87.6607 
 670   0.0000       3.223623        87.7192 
 671   0.0000       3.225903        87.7813 
 672   0.0000       3.231187        87.9251 
 673   0.0000       3.236785        88.0774 
 674   0.0000       3.243606        88.2630 
 675   0.0000       3.245199        88.3063 
 676   0.0000       3.249608        88.4263 
 677   0.0000       3.254847        88.5689 
 678   0.0000       3.259641        88.6993 
 679   0.0000       3.266275        88.8799 
 680   0.0000       3.268537        88.9414 
 681   0.0000       3.276513        89.1585 
 682   0.0000       3.288724        89.4907 
 683   0.0000       3.294376        89.6445 
 684   0.0000       3.299157        89.7746 
 685   0.0000       3.300896        89.8219 
 686   0.0000       3.305922        89.9587 
 687   0.0000       3.310011        90.0700 
 688   0.0000       3.315289        90.2136 
 689   0.0000       3.320470        90.3546 
 690   0.0000       3.328690        90.5783 
 691   0.0000       3.333699        90.7146 
 692   0.0000       3.337368        90.8144 
 693   0.0000       3.351415        91.1966 
 694   0.0000       3.359483        91.4162 
 695   0.0000       3.360630        91.4474 
 696   0.0000       3.370351        91.7119 
 697   0.0000       3.390962        92.2728 
 698   0.0000       3.393501        92.3419 
 699   0.0000       3.420621        93.0798 
 700   0.0000       3.424614        93.1885 
 701   0.0000       3.431403        93.3732 
 702   0.0000       3.437319        93.5342 
 703   0.0000       3.446050        93.7718 
 704   0.0000       3.456379        94.0529 
 705   0.0000       3.464782        94.2815 
 706   0.0000       3.480466        94.7083 
 707   0.0000       3.487199        94.8915 
 708   0.0000       3.490249        94.9745 
 709   0.0000       3.499137        95.2164 
 710   0.0000       3.502141        95.2981 
 711   0.0000       3.516881        95.6992 
 712   0.0000       3.522455        95.8509 
 713   0.0000       3.532897        96.1350 
 714   0.0000       3.539371        96.3112 
 715   0.0000       3.546281        96.4992 
 716   0.0000       3.556490        96.7770 
 717   0.0000       3.571910        97.1966 
 718   0.0000       3.602494        98.0289 
 719   0.0000       3.624658        98.6320 
 720   0.0000       3.639219        99.0282 
 721   0.0000       3.658406        99.5503 
 722   0.0000       3.670573        99.8814 
 723   0.0000       3.678879       100.1074 
 724   0.0000       3.710257       100.9612 
 725   0.0000       3.717236       101.1511 
 726   0.0000       3.725859       101.3858 
 727   0.0000       3.731939       101.5512 
 728   0.0000       3.745119       101.9099 
 729   0.0000       3.777235       102.7838 
 730   0.0000       3.779378       102.8421 
 731   0.0000       3.788968       103.1031 
 732   0.0000       3.791724       103.1781 
 733   0.0000       3.821504       103.9884 
 734   0.0000       3.823842       104.0520 
 735   0.0000       3.845307       104.6361 
 736   0.0000       3.861168       105.0677 
 737   0.0000       3.868031       105.2545 
 738   0.0000       3.880597       105.5964 
 739   0.0000       3.892253       105.9136 
 740   0.0000       3.903936       106.2315 
 741   0.0000       3.907548       106.3298 
 742   0.0000       3.919470       106.6542 
 743   0.0000       3.926028       106.8326 
 744   0.0000       3.936985       107.1308 
 745   0.0000       3.950985       107.5118 
 746   0.0000       3.956847       107.6713 
 747   0.0000       3.963128       107.8422 
 748   0.0000       3.972953       108.1096 
 749   0.0000       3.977562       108.2350 
 750   0.0000       3.985053       108.4388 
 751   0.0000       3.986928       108.4898 
 752   0.0000       3.990860       108.5968 
 753   0.0000       3.999954       108.8443 
 754   0.0000       4.011800       109.1666 
 755   0.0000       4.016182       109.2859 
 756   0.0000       4.020290       109.3976 
 757   0.0000       4.027694       109.5991 
 758   0.0000       4.036511       109.8390 
 759   0.0000       4.046073       110.0992 
 760   0.0000       4.049116       110.1821 
 761   0.0000       4.056356       110.3790 
 762   0.0000       4.064019       110.5876 
 763   0.0000       4.073036       110.8329 
 764   0.0000       4.085595       111.1747 
 765   0.0000       4.092033       111.3499 
 766   0.0000       4.094545       111.4182 
 767   0.0000       4.114124       111.9510 
 768   0.0000       4.122431       112.1770 
 769   0.0000       4.134817       112.5141 
 770   0.0000       4.155589       113.0793 
 771   0.0000       4.165799       113.3572 
 772   0.0000       4.166588       113.3786 
 773   0.0000       4.176888       113.6589 
 774   0.0000       4.188742       113.9815 
 775   0.0000       4.213380       114.6519 
 776   0.0000       4.231070       115.1333 
 777   0.0000       4.264687       116.0480 
 778   0.0000       4.283578       116.5621 
 779   0.0000       4.299725       117.0015 
 780   0.0000       4.317265       117.4788 
 781   0.0000       4.348746       118.3354 
 782   0.0000       4.355732       118.5255 
 783   0.0000       4.374501       119.0362 
 784   0.0000       4.384056       119.2962 
 785   0.0000       4.398052       119.6771 
 786   0.0000       4.417708       120.2120 
 787   0.0000       4.429595       120.5354 
 788   0.0000       4.433232       120.6344 
 789   0.0000       4.445223       120.9607 
 790   0.0000       4.466654       121.5438 
 791   0.0000       4.482962       121.9876 
 792   0.0000       4.504693       122.5789 
 793   0.0000       4.513810       122.8270 
 794   0.0000       4.519835       122.9910 
[...]


-----------
IR SPECTRUM
-----------

 Mode    freq (cm**-1)   T**2         TX         TY         TZ
-------------------------------------------------------------------
   6:        20.02    0.157824  (  0.247322   0.310429   0.017016)
   7:        42.05    0.212656  ( -0.016045   0.282560  -0.364085)
   8:        55.25    0.073644  ( -0.162988  -0.059515  -0.208655)
   9:        57.78    0.494486  (  0.057383   0.398191  -0.576747)
  10:        66.85    0.323797  ( -0.287937   0.055941  -0.487606)
  11:        72.85    0.796225  ( -0.641150   0.158028  -0.600149)
  12:        82.59    0.177375  (  0.378356   0.141280  -0.119421)
  13:        97.14    0.108356  ( -0.083966  -0.300392  -0.105217)
  14:       116.38    0.018993  ( -0.125077  -0.057839   0.001996)
  15:       131.72    1.329002  ( -0.892031   0.262999   0.681260)
  16:       138.15    0.200086  (  0.335434   0.189405   0.227368)
  17:       153.18    1.368827  ( -1.045814   0.443008   0.280794)
  18:       167.94    0.759804  ( -0.125355  -0.252536   0.824813)
  19:       177.85    3.414954  ( -0.168763  -1.767253   0.513119)
  20:       202.92    2.471636  (  0.193375   0.826138  -1.323532)
  21:       216.26    0.596751  ( -0.331398  -0.446041  -0.536632)
  22:       221.52    0.420707  (  0.405866  -0.199132  -0.465109)
  23:       229.15    2.564859  ( -1.497145   0.124894   0.554813)
  24:       242.37    2.755666  (  0.645557   0.575152   1.417082)
  25:       275.82    1.187656  ( -0.879777   0.554545   0.325772)
  26:       308.58    9.158201  (  2.923588   0.186636  -0.758947)
  27:       312.97    2.533009  (  0.750205  -0.606587   1.265802)
  28:       366.45    3.995239  (  0.505709   0.957528   1.680071)
  29:       374.36    2.541392  ( -0.429445   0.056452  -1.534204)
  30:       379.82   14.384747  ( -2.256005  -2.926889   0.853528)
  31:       390.32    3.740361  (  1.512405   0.223591  -1.184482)
  32:       405.04    3.592460  ( -0.197284   1.654670  -0.903109)
  33:       411.78    0.388459  ( -0.119308   0.529024  -0.307178)
  34:       448.94    4.567834  (  1.772775   0.335103   1.145779)
  35:       478.40   17.529040  ( -3.199210   1.114297   2.460170)
  36:       512.14    4.250330  ( -1.440319   0.364739  -1.429257)
  37:       540.48    0.028715  (  0.131960  -0.092079   0.053134)
  38:       559.51    0.207095  ( -0.138922  -0.430677  -0.048096)
  39:       575.59    5.840858  (  0.608774  -1.504716   1.790553)
  40:       581.98    5.722116  (  1.948341   1.324658   0.413963)
  41:       587.44    3.662672  ( -1.060367   1.389625   0.779254)
  42:       609.53    0.347928  ( -0.575334   0.016911  -0.128970)
  43:       617.70    6.997789  (  2.568720   0.297206  -0.557796)
  44:       621.89   16.007792  ( -3.539665  -1.846621   0.261832)
  45:       644.79    3.798789  (  1.804039   0.736761  -0.037631)
  46:       668.73    6.432025  (  0.945978  -0.873680   2.184910)
  47:       691.14   21.910926  ( -2.789718   1.987578   3.190288)
  48:       714.11   12.108131  ( -1.027623   1.793919  -2.798924)
  49:       730.37   23.283742  (  3.432333   0.305006  -3.377840)
  50:       736.09   38.678079  ( -2.141373   3.075796  -4.963072)
  51:       742.74   58.251727  (  2.368628  -4.359784   5.799450)
  52:       769.55    7.858872  (  2.348029   1.426988   0.556181)
  53:       796.34   44.049422  ( -4.776965   2.290478   3.997967)
  54:       802.65    2.081918  (  1.415488  -0.034517  -0.277706)
  55:       816.17    0.526240  ( -0.167661  -0.051465  -0.703904)
  56:       821.45    0.727486  (  0.522337  -0.306238   0.600723)
  57:       830.91    0.083422  ( -0.178318   0.038604  -0.223907)
  58:       855.50   58.398228  ( -4.318542  -5.743261  -2.600649)
  59:       875.54    0.070021  ( -0.191070   0.182974   0.005795)
  60:       882.41    2.264588  ( -1.428039  -0.437556   0.183952)
  61:       895.62   13.817391  ( -1.540263   2.084706   2.664391)
  62:       904.76    3.694892  (  1.052182  -1.601744   0.149073)
  63:       905.24    9.291402  ( -1.814018   0.729357   2.338542)
  64:       908.89    5.451042  (  0.917405  -1.418182   1.611884)
  65:       937.47    8.467371  ( -0.214500   1.749215   2.315514)
  66:       948.69    0.028105  ( -0.083190  -0.141876  -0.032485)
  67:       949.34    0.092817  (  0.118966  -0.273663  -0.061423)
  68:       977.85   28.798000  (  2.159920   4.761563   1.208414)
  69:       979.14    6.733874  ( -2.478425  -0.626291   0.446143)
  70:       979.89   52.439498  ( -6.689072   1.416630   2.385157)
  71:       996.86   11.279878  ( -2.236865  -2.378125  -0.787929)
  72:      1011.11    0.907587  (  0.218275  -0.874618  -0.308199)
  73:      1017.31    6.969090  ( -1.985321  -1.670176  -0.487959)
  74:      1033.49    8.304285  (  1.245866  -1.739057  -1.930747)
  75:      1047.83  120.856832  ( 10.321573   0.004856  -3.784435)
  76:      1069.90    8.783692  (  1.144791  -2.098353   1.752159)
  77:      1082.59    6.848788  ( -0.606594   2.032622   1.532736)
  78:      1085.30   20.646223  ( -2.707063  -3.423154  -1.264932)
  79:      1123.61    1.606302  ( -0.783164   0.698284   0.710884)
  80:      1140.01   72.991947  ( -6.079939  -5.756875  -1.698433)
  81:      1142.67   26.932704  ( -2.659462  -3.941921  -2.078755)
  82:      1155.79    0.585042  (  0.601707  -0.180798  -0.436237)
  83:      1158.48    0.437289  ( -0.497688  -0.408478  -0.150803)
  84:      1167.12   50.803176  (  5.268539   4.667187   1.123851)
  85:      1181.21   31.513788  ( -1.684666   3.853532   3.718330)
  86:      1200.97    7.426562  (  2.104079   1.730874  -0.059074)
  87:      1202.41   43.221188  (  4.820955   4.113203   1.749612)
  88:      1249.63   20.421776  ( -4.204292  -1.635643   0.265291)
  89:      1268.65  113.412317  (  9.556835  -1.494164  -4.454963)
  90:      1281.71   64.374953  ( -4.430973   4.466241   4.979370)
  91:      1296.12    0.082230  ( -0.037025   0.190769  -0.210870)
  92:      1313.19   23.159453  ( -2.445315   2.557696   3.261607)
  93:      1314.60    7.239406  (  1.844636   1.835717   0.683277)
  94:      1342.62    3.609777  (  1.715301  -0.706024   0.411156)
  95:      1348.33   10.126381  ( -2.809634  -0.200780   1.480549)
  96:      1380.27   23.282272  (  3.321026  -2.206576  -2.717367)
  97:      1385.25   69.070018  (  3.090222  -5.615798  -5.289930)
  98:      1390.50    2.073998  ( -1.133530  -0.664404   0.589641)
  99:      1424.57   13.889941  (  1.999892  -0.844777   3.029311)
 100:      1432.50   61.228401  (  6.635101   4.053417   0.879573)
 101:      1447.46    7.743684  ( -0.162048  -2.513000   1.184169)
 102:      1451.42   19.067324  (  0.979532   3.114685   2.899410)
 103:      1460.98   18.444704  (  1.568322  -3.093819  -2.532459)
 104:      1473.93   50.151608  ( -5.204344  -4.456543  -1.790430)
 105:      1492.80  187.119355  (-11.024843   4.177206   6.937085)
 106:      1567.03    7.151980  (  1.829400   1.777071   0.804545)
 107:      1572.88  348.932342  ( 17.430421  -1.604377  -6.522174)
 108:      1577.32    7.240333  (  0.721648   2.575625  -0.292770)
 109:      1580.31    3.818336  (  0.624312   1.524767   1.050551)
 110:      1597.04   13.881438  ( -2.044258  -1.923698   2.449864)
 111:      1607.95   40.473634  ( -6.090052   0.725301   1.690810)
 112:      2954.59    2.430291  ( -0.950108   0.335556  -1.189532)
 113:      3047.49    1.538649  ( -0.590439  -0.928107  -0.573279)
 114:      3051.32    6.493993  ( -1.277358  -2.098616  -0.676875)
 115:      3064.12    2.736300  (  0.905428   1.356995  -0.273979)
 116:      3067.67    4.311551  (  1.780448   0.140134  -1.059206)
 117:      3098.52    1.171368  (  0.211278   0.790676   0.708210)
 118:      3114.79    1.328263  ( -0.945663  -0.656454  -0.055255)
 119:      3119.07    1.403046  (  1.093408  -0.161406  -0.425974)
 120:      3120.34    1.201729  (  0.331404   0.883734  -0.557597)
 121:      3127.11    3.351306  (  1.581362   0.439891   0.810614)
 122:      3127.77    0.916083  ( -0.918741  -0.267798  -0.016800)
 123:      3132.59    0.207101  ( -0.057559   0.195154   0.407066)
 124:      3133.92    0.962341  ( -0.628631  -0.728445  -0.191135)
 125:      3135.53    1.175164  ( -0.156548   0.880774   0.612285)
 126:      3139.07    0.167322  (  0.181216   0.365320   0.031997)
 127:      3143.16    0.370419  (  0.052532   0.451113   0.405163)
 128:      3152.38    0.745533  (  0.159278   0.796925   0.291675)
 129:      3159.98    0.151662  (  0.245068  -0.122422  -0.276797)
 130:      3172.60    0.053272  (  0.110449  -0.122856  -0.161180)
 131:      3188.74    0.498223  ( -0.614207  -0.346245   0.032962)

The first frequency considered to be a vibration is 6
The total number of vibrations considered is 126


--------------------------
THERMOCHEMISTRY AT 298.15K
--------------------------

Temperature         ... 298.15 K
Pressure            ... 1.00 atm
Total Mass          ... 356.39 AMU

Throughout the following assumptions are being made:
  (1) The electronic state is orbitally nondegenerate
      but the spin degeneracy is treated
  (2) There are no thermally accessible electronically excited states
  (3) Hindered rotations indicated by low frequency modes are not
      treated as such but are treated as vibrations and this may
      cause some error
  (4) All equations used are the standard statistical mechanics
      equations for an ideal gas
  (5) All vibrations are strictly harmonic

freq.      20.02  E(vib)   ...       0.56 
freq.      42.05  E(vib)   ...       0.53 
freq.      55.25  E(vib)   ...       0.52 
freq.      57.78  E(vib)   ...       0.51 
freq.      66.85  E(vib)   ...       0.50 
freq.      72.85  E(vib)   ...       0.49 
freq.      82.59  E(vib)   ...       0.48 
freq.      97.14  E(vib)   ...       0.46 
freq.     116.38  E(vib)   ...       0.44 
freq.     131.72  E(vib)   ...       0.42 
freq.     138.15  E(vib)   ...       0.42 
freq.     153.18  E(vib)   ...       0.40 
freq.     167.94  E(vib)   ...       0.38 
freq.     177.85  E(vib)   ...       0.37 
freq.     202.92  E(vib)   ...       0.35 
freq.     216.26  E(vib)   ...       0.34 
freq.     221.52  E(vib)   ...       0.33 
freq.     229.15  E(vib)   ...       0.32 
freq.     242.37  E(vib)   ...       0.31 
freq.     275.82  E(vib)   ...       0.28 
freq.     308.58  E(vib)   ...       0.26 
freq.     312.97  E(vib)   ...       0.25 
freq.     366.45  E(vib)   ...       0.22 
freq.     374.36  E(vib)   ...       0.21 
freq.     379.82  E(vib)   ...       0.21 
freq.     390.32  E(vib)   ...       0.20 
freq.     405.04  E(vib)   ...       0.19 
freq.     411.78  E(vib)   ...       0.19 
freq.     448.94  E(vib)   ...       0.17 
freq.     478.40  E(vib)   ...       0.15 
freq.     512.14  E(vib)   ...       0.14 
freq.     540.48  E(vib)   ...       0.12 
freq.     559.51  E(vib)   ...       0.12 
freq.     575.59  E(vib)   ...       0.11 
freq.     581.98  E(vib)   ...       0.11 
freq.     587.44  E(vib)   ...       0.10 
freq.     609.53  E(vib)   ...       0.10 
freq.     617.70  E(vib)   ...       0.09 
freq.     621.89  E(vib)   ...       0.09 
freq.     644.79  E(vib)   ...       0.09 
freq.     668.73  E(vib)   ...       0.08 
freq.     691.14  E(vib)   ...       0.07 
freq.     714.11  E(vib)   ...       0.07 
freq.     730.37  E(vib)   ...       0.06 
freq.     736.09  E(vib)   ...       0.06 
freq.     742.74  E(vib)   ...       0.06 
freq.     769.55  E(vib)   ...       0.06 
freq.     796.34  E(vib)   ...       0.05 
freq.     802.65  E(vib)   ...       0.05 
freq.     816.17  E(vib)   ...       0.05 
freq.     821.45  E(vib)   ...       0.05 
freq.     830.91  E(vib)   ...       0.04 
freq.     855.50  E(vib)   ...       0.04 
freq.     875.54  E(vib)   ...       0.04 
freq.     882.41  E(vib)   ...       0.04 
freq.     895.62  E(vib)   ...       0.03 
freq.     904.76  E(vib)   ...       0.03 
freq.     905.24  E(vib)   ...       0.03 
freq.     908.89  E(vib)   ...       0.03 
freq.     937.47  E(vib)   ...       0.03 
freq.     948.69  E(vib)   ...       0.03 
freq.     949.34  E(vib)   ...       0.03 
freq.     977.85  E(vib)   ...       0.03 
freq.     979.14  E(vib)   ...       0.03 
freq.     979.89  E(vib)   ...       0.02 
freq.     996.86  E(vib)   ...       0.02 
freq.    1011.11  E(vib)   ...       0.02 
freq.    1017.31  E(vib)   ...       0.02 
freq.    1033.49  E(vib)   ...       0.02 
freq.    1047.83  E(vib)   ...       0.02 
freq.    1069.90  E(vib)   ...       0.02 
freq.    1082.59  E(vib)   ...       0.02 
freq.    1085.30  E(vib)   ...       0.02 
freq.    1123.61  E(vib)   ...       0.01 
freq.    1140.01  E(vib)   ...       0.01 
freq.    1142.67  E(vib)   ...       0.01 
freq.    1155.79  E(vib)   ...       0.01 
freq.    1158.48  E(vib)   ...       0.01 
freq.    1167.12  E(vib)   ...       0.01 
freq.    1181.21  E(vib)   ...       0.01 
freq.    1200.97  E(vib)   ...       0.01 
freq.    1202.41  E(vib)   ...       0.01 
freq.    1249.63  E(vib)   ...       0.01 
freq.    1268.65  E(vib)   ...       0.01 
freq.    1281.71  E(vib)   ...       0.01 
freq.    1296.12  E(vib)   ...       0.01 
freq.    1313.19  E(vib)   ...       0.01 
freq.    1314.60  E(vib)   ...       0.01 
freq.    1342.62  E(vib)   ...       0.01 
freq.    1348.33  E(vib)   ...       0.01 
freq.    1380.27  E(vib)   ...       0.01 
freq.    1385.25  E(vib)   ...       0.00 
freq.    1390.50  E(vib)   ...       0.00 
freq.    1424.57  E(vib)   ...       0.00 
freq.    1432.50  E(vib)   ...       0.00 
freq.    1447.46  E(vib)   ...       0.00 
freq.    1451.42  E(vib)   ...       0.00 
freq.    1460.98  E(vib)   ...       0.00 
freq.    1473.93  E(vib)   ...       0.00 
freq.    1492.80  E(vib)   ...       0.00 
freq.    1567.03  E(vib)   ...       0.00 
freq.    1572.88  E(vib)   ...       0.00 
freq.    1577.32  E(vib)   ...       0.00 
freq.    1580.31  E(vib)   ...       0.00 
freq.    1597.04  E(vib)   ...       0.00 
freq.    1607.95  E(vib)   ...       0.00 
freq.    2954.59  E(vib)   ...       0.00 
freq.    3047.49  E(vib)   ...       0.00 
freq.    3051.32  E(vib)   ...       0.00 
freq.    3064.12  E(vib)   ...       0.00 
freq.    3067.67  E(vib)   ...       0.00 
freq.    3098.52  E(vib)   ...       0.00 
freq.    3114.79  E(vib)   ...       0.00 
freq.    3119.07  E(vib)   ...       0.00 
freq.    3120.34  E(vib)   ...       0.00 
freq.    3127.11  E(vib)   ...       0.00 
freq.    3127.77  E(vib)   ...       0.00 
freq.    3132.59  E(vib)   ...       0.00 
freq.    3133.92  E(vib)   ...       0.00 
freq.    3135.53  E(vib)   ...       0.00 
freq.    3139.07  E(vib)   ...       0.00 
freq.    3143.16  E(vib)   ...       0.00 
freq.    3152.38  E(vib)   ...       0.00 
freq.    3159.98  E(vib)   ...       0.00 
freq.    3172.60  E(vib)   ...       0.00 
freq.    3188.74  E(vib)   ...       0.00 

------------
INNER ENERGY
------------

The inner energy is: U= E(el) + E(ZPE) + E(vib) + E(rot) + E(trans)
    E(el)   - is the total energy from the electronic structure calculation
              = E(kin-el) + E(nuc-el) + E(el-el) + E(nuc-nuc)
    E(ZPE)  - the the zero temperature vibrational energy from the frequency calculation
    E(vib)  - the the finite temperature correction to E(ZPE) due to population
              of excited vibrational states
    E(rot)  - is the rotational thermal energy
    E(trans)- is the translational thermal energy

Summary of contributions to the inner energy U:
Electronic energy                ...  -2003.80390160 Eh
Zero point energy                ...      0.33931152 Eh     212.92 kcal/mol
Thermal vibrational correction   ...      0.02077044 Eh      13.03 kcal/mol
Thermal rotational correction    ...      0.00141627 Eh       0.89 kcal/mol
Thermal translational correction ...      0.00141627 Eh       0.89 kcal/mol
-----------------------------------------------------------------------
Total thermal energy                  -2003.44098711 Eh


Summary of corrections to the electronic energy:
(perhaps to be used in another calculation)
Total thermal correction                  0.02360298 Eh      14.81 kcal/mol
Non-thermal (ZPE) correction              0.33931152 Eh     212.92 kcal/mol
-----------------------------------------------------------------------
Total correction                          0.36291450 Eh     227.73 kcal/mol


--------
ENTHALPY
--------

The enthalpy is H = U + kB*T
                kB is Boltzmann's constant
Total free energy                 ...  -2003.44098711 Eh 
Thermal Enthalpy correction       ...      0.00094421 Eh       0.59 kcal/mol
-----------------------------------------------------------------------
Total Enthalpy                    ...  -2003.44004290 Eh


Note: Only C1 symmetry has been detected, increase convergence thresholds 
      if your molecule has a higher symmetry. Symmetry factor of 1.0 is   
      used for the rotational entropy correction. 
 

Note: Rotational entropy computed according to Herzberg 
Infrared and Raman Spectra, Chapter V,1, Van Nostrand Reinhold, 1945 
Point Group:  C1, Symmetry Number:   1  
Rotational constants in cm-1:     0.011142     0.006552     0.004524 

Vibrational entropy computed according to the QRRHO of S. Grimme
Chem.Eur.J. 2012 18 9955


-------
ENTROPY
-------

The entropy contributions are T*S = T*(S(el)+S(vib)+S(rot)+S(trans))
     S(el)   - electronic entropy
     S(vib)  - vibrational entropy
     S(rot)  - rotational entropy
     S(trans)- translational entropy
The entropies will be listed as mutliplied by the temperature to get
units of energy

Electronic entropy                ...      0.00130891 Eh      0.82 kcal/mol
Vibrational entropy               ...      0.03663403 Eh     22.99 kcal/mol
Rotational entropy                ...      0.01655602 Eh     10.39 kcal/mol
Translational entropy             ...      0.02067113 Eh     12.97 kcal/mol
-----------------------------------------------------------------------
Final entropy term                ...      0.07517009 Eh     47.17 kcal/mol

In case the symmetry of your molecule has not been determined correctly
or in case you have a reason to use a different symmetry number we print 
out the resulting rotational entropy values for sn=1,12 :
 --------------------------------------------------------
|  sn= 1 | S(rot)=       0.01655602 Eh     10.39 kcal/mol|
|  sn= 2 | S(rot)=       0.01590156 Eh      9.98 kcal/mol|
|  sn= 3 | S(rot)=       0.01551873 Eh      9.74 kcal/mol|
|  sn= 4 | S(rot)=       0.01524711 Eh      9.57 kcal/mol|
|  sn= 5 | S(rot)=       0.01503642 Eh      9.44 kcal/mol|
|  sn= 6 | S(rot)=       0.01486427 Eh      9.33 kcal/mol|
|  sn= 7 | S(rot)=       0.01471873 Eh      9.24 kcal/mol|
|  sn= 8 | S(rot)=       0.01459265 Eh      9.16 kcal/mol|
|  sn= 9 | S(rot)=       0.01448144 Eh      9.09 kcal/mol|
|  sn=10 | S(rot)=       0.01438196 Eh      9.02 kcal/mol|
|  sn=11 | S(rot)=       0.01429197 Eh      8.97 kcal/mol|
|  sn=12 | S(rot)=       0.01420982 Eh      8.92 kcal/mol|
 --------------------------------------------------------


-------------------
GIBBS FREE ENERGY
-------------------

The Gibbs free energy is G = H - T*S

Total enthalpy                    ...  -2003.44004290 Eh 
Total entropy correction          ...     -0.07517009 Eh    -47.17 kcal/mol
-----------------------------------------------------------------------
Final Gibbs free energy         ...  -2003.51521298 Eh

For completeness - the Gibbs free energy minus the electronic energy
G-E(el)                           ...      0.28868862 Eh    181.15 kcal/mol


Timings for individual modules:

Sum of individual times         ...    50698.166 sec (= 844.969 min)
GTO integral calculation        ...        0.620 sec (=   0.010 min)   0.0 %
SCF iterations                  ...      179.089 sec (=   2.985 min)   0.4 %
Analytical frequency calculation...    50518.457 sec (= 841.974 min)  99.6 %
                             ****ORCA TERMINATED NORMALLY****
TOTAL RUN TIME: 0 days 14 hours 4 minutes 59 seconds 299 msec
