
                                 *****************
                                 * O   R   C   A *
                                 *****************

           --- An Ab Initio, DFT and Semiempirical electronic structure package ---

                  #######################################################
                  #                        -***-                        #
                  #          Department of theory and spectroscopy      #
                  #               Directorship: Frank Neese             #
                  #        Max Planck Institute fuer Kohlenforschung    #
                  #                Kaiser Wilhelm Platz 1               #
                  #                 D-45470 Muelheim/Ruhr               #
                  #                      Germany                        #
                  #                                                     #
                  #                  All rights reserved                #
                  #                        -***-                        #
                  #######################################################


                         Program Version 4.2.1 -  RELEASE  -


 With contributions from (in alphabetic order):
   Daniel Aravena         : Magnetic Suceptibility
   Michael Atanasov       : Ab Initio Ligand Field Theory (pilot matlab implementation)
   Alexander A. Auer      : GIAO ZORA, VPT2
   Ute Becker             : Parallelization
   Giovanni Bistoni       : ED, misc. LED, open-shell LED, HFLD
   Martin Brehm           : Molecular dynamics
   Dmytro Bykov           : SCF Hessian
   Vijay G. Chilkuri      : MRCI spin determinant printing, contributions to CSF-ICE
   Dipayan Datta          : RHF DLPNO-CCSD density
   Achintya Kumar Dutta   : EOM-CC, STEOM-CC
   Dmitry Ganyushin       : Spin-Orbit,Spin-Spin,Magnetic field MRCI
   Miquel Garcia          : C-PCM Hessian, Gaussian charge scheme
   Yang Guo               : DLPNO-NEVPT2, CIM, IAO-localization
   Andreas Hansen         : Spin unrestricted coupled pair/coupled cluster methods
   Benjamin Helmich-Paris : CASSCF linear response (MC-RPA)
   Lee Huntington         : MR-EOM, pCC
   Robert Izsak           : Overlap fitted RIJCOSX, COSX-SCS-MP3, EOM
   Christian Kollmar      : KDIIS, OOCD, Brueckner-CCSD(T), CCSD density
   Simone Kossmann        : Meta GGA functionals, TD-DFT gradient, OOMP2, MP2 Hessian
   Martin Krupicka        : AUTO-CI
   Lucas Lang             : DCDCAS
   Dagmar Lenk            : GEPOL surface, SMD
   Dimitrios Liakos       : Extrapolation schemes; Compound Job, initial MDCI parallelization
   Dimitrios Manganas     : Further ROCIS development; embedding schemes
   Dimitrios Pantazis     : SARC Basis sets
   Taras Petrenko         : DFT Hessian,TD-DFT gradient, ASA, ECA, R-Raman, ABS, FL, XAS/XES, NRVS
   Peter Pinski           : DLPNO-MP2, DLPNO-MP2 Gradient
   Christoph Reimann      : Effective Core Potentials
   Marius Retegan         : Local ZFS, SOC
   Christoph Riplinger    : Optimizer, TS searches, QM/MM, DLPNO-CCSD(T), (RO)-DLPNO pert. Triples
   Tobias Risthaus        : Range-separated hybrids, TD-DFT gradient, RPA, STAB
   Michael Roemelt        : Original ROCIS implementation
   Masaaki Saitow         : Open-shell DLPNO-CCSD energy and density
   Barbara Sandhoefer     : DKH picture change effects
   Avijit Sen             : IP-ROCIS
   Kantharuban Sivalingam : CASSCF convergence, NEVPT2, FIC-MRCI
   Bernardo de Souza      : ESD, SOC TD-DFT
   Georgi Stoychev        : AutoAux, RI-MP2 NMR
   Willem Van den Heuvel  : Paramagnetic NMR
   Boris Wezisla          : Elementary symmetry handling
   Frank Wennmohs         : Technical directorship


 We gratefully acknowledge several colleagues who have allowed us to
 interface, adapt or use parts of their codes:
   Stefan Grimme, W. Hujo, H. Kruse,             : VdW corrections, initial TS optimization,
                  C. Bannwarth                     DFT functionals, gCP, sTDA/sTD-DF
   Ed Valeev, F. Pavosevic, A. Kumar             : LibInt (2-el integral package), F12 methods
   Garnet Chan, S. Sharma, J. Yang, R. Olivares  : DMRG
   Ulf Ekstrom                                   : XCFun DFT Library
   Mihaly Kallay                                 : mrcc  (arbitrary order and MRCC methods)
   Andreas Klamt, Michael Diedenhofen            : otool_cosmo (COSMO solvation model)
   Jiri Pittner, Ondrej Demel                    : Mk-CCSD
   Frank Weinhold                                : gennbo (NPA and NBO analysis)
   Christopher J. Cramer and Donald G. Truhlar   : smd solvation model
   Lars Goerigk                                  : TD-DFT with DH, B97 family of functionals
   V. Asgeirsson, H. Jonsson                     : NEB implementation
   FAccTs GmbH                                   : IRC, NEB, NEB-TS, Multilevel, MM, QM/MM, CI optimization
   S Lehtola, MJT Oliveira, MAL Marques          : LibXC Library


 Your calculation uses the libint2 library for the computation of 2-el integrals
 For citations please refer to: http://libint.valeyev.net

 Your ORCA version has been built with support for libXC version: 4.2.3
 For citations please refer to: https://tddft.org/programs/libxc/

 This ORCA versions uses:
   CBLAS   interface :  Fast vector & matrix operations
   LAPACKE interface :  Fast linear algebra routines
   SCALAPACK package :  Parallel linear algebra routines


Your calculation utilizes the atom-pairwise dispersion correction
with the Becke-Johnson damping scheme (D3BJ)
Cite in your paper:
S.Grimme, S.Ehrlich, L.Goerigk, J Comput Chem, (2011), 32, 1456–1465 
S.Grimme, J.Antony, S.Ehrlich and H.Krieg, J.Chem.Phys., 132, (2010), 154104 
   

----- Orbital basis set information -----
Your calculation utilizes the basis: def2-TZVP
   F. Weigend and R. Ahlrichs, Phys. Chem. Chem. Phys. 7, 3297 (2005).

----- AuxJ basis set information -----
Your calculation utilizes the auxiliary basis: def2/J
   F. Weigend, Phys. Chem. Chem. Phys. 8, 1057 (2006).

================================================================================
                                        WARNINGS
                       Please study these warnings very carefully!
================================================================================


WARNING: your system is open-shell and RHF/RKS was chosen
  ===> : WILL SWITCH to UHF/UKS


INFO   : the flag for use of LIBINT has been found!

================================================================================
                                       INPUT FILE
================================================================================
NAME = IM2_2_Freq2.inp
|  1> #
|  2> # ORCA calc attempt 1 :-)
|  3> #
|  4> ! BP86 D3BJ RIJCOSX def2-TZVP def2/J Grid6 FinalGrid6 MORead Freq 
|  5> %moinp "IM2_2_Tight2.ges"
|  6> %scf
|  7> MaxIter 1000
|  8> end
|  9> * xyz 1 4
| 10>   Cr  -0.41036249812630     -1.14992914507252     -2.34004385040183
| 11>   O   -2.12216162168026     -1.14519690995948     -1.17754406423218
| 12>   N   0.33988703026649     -0.73204259358667     -0.59739838549546
| 13>   N   1.39371869203748     -0.67020857183810     -2.97302303339981
| 14>   C   -3.34390554453468     -1.70536034968726     -1.64620120851950
| 15>   C   -3.66400554684112     -3.02700635729837     -1.35050474678491
| 16>   C   -4.13177506422986     -0.89896189557377     -2.45829289610933
| 17>   C   -4.83334950636377     -3.55621520137024     -1.89917362636501
| 18>   H   -3.01807769339847     -3.62296675460979     -0.70697328280137
| 19>   C   -5.29451159090046     -1.44923909552683     -3.00751894028585
| 20>   H   -3.84761889171642      0.13740043123590     -2.64312877303583
| 21>   C   -5.64370340100394     -2.77196066384732     -2.72742212316734
| 22>   H   -5.10776750890581     -4.58837594360039     -1.68193949199870
| 23>   H   -6.55311872442182     -3.19503628712647     -3.15344355397352
| 24>   H   -5.92943666246462     -0.83590943420375     -3.64645289529595
| 25>   C   -1.85503756079315     -1.07888671475903      0.21405677193792
| 26>   C   -0.50272252959506     -0.83744104304993      0.51440040863371
| 27>   C   -0.13138472637682     -0.72410375422834      1.86075582858572
| 28>   C   -2.83203083170993     -1.18824960591296      1.18758381812022
| 29>   C   -2.44073828022568     -1.06945389013828      2.52629724884316
| 30>   H   -3.87214703631805     -1.35995658791455      0.91515917601268
| 31>   C   -1.10128666175692     -0.84248526894378      2.85614798512020
| 32>   H   0.91020102767248     -0.55146470921543      2.12989130009331
| 33>   H   -3.19164540741716     -1.15440097025637      3.31072226834300
| 34>   H   -0.80646121400757     -0.75758821770234      3.90152086268094
| 35>   C   1.63102075099352     -0.38833547679691     -0.62616077272784
| 36>   C   2.23051467379856     -0.35329116060220     -1.88651613719271
| 37>   C   2.15204046404166     -0.58073292825340     -4.08993781489894
| 38>   C   3.47340976643520     -0.20164616424406     -3.76100167551290
| 39>   H   1.73818803434386     -0.78866235613231     -5.07397858417130
| 40>   C   3.52705777747528     -0.05889302166001     -2.37314479051929
| 41>   H   4.38611708320086      0.22725930942193     -1.77344455250381
| 42>   H   4.28392115578175     -0.05291671626512     -4.46725053119347
| 43>   H   2.17253196304111     -0.14110385777583      0.28963662667176
| 44>   C   -0.35267540107599     -3.12327768522243     -2.62375947635333
| 45>   H   0.38915838183004     -3.31194081919587     -3.41592372968261
| 46>   H   -1.37423470714951     -3.29038184903767     -3.02789668280952
| 47>   C   -0.08762045225426     -3.95538329734195     -1.37850907096418
| 48>   C   -0.31157890775637     -5.45596694637017     -1.62213231958667
| 49>   H   -0.73421018554087     -3.62441881502411     -0.54850355977938
| 50>   H   0.94746296994232     -3.78565713679879     -1.04447413247005
| 51>   H   -1.34855803888203     -5.65504427716665     -1.92960024882350
| 52>   H   -0.10792794869059     -6.03420947880856     -0.71020976703853
| 53>   H   0.34966437327728     -5.82900778853928     -2.41639757694764
| 54> *
| 55> 
| 56>                          ****END OF INPUT****
================================================================================

                       ****************************
                       * Single Point Calculation *
                       ****************************

---------------------------------
CARTESIAN COORDINATES (ANGSTROEM)
---------------------------------
  Cr    -0.410362   -1.149929   -2.340044
  O     -2.122162   -1.145197   -1.177544
  N      0.339887   -0.732043   -0.597398
  N      1.393719   -0.670209   -2.973023
  C     -3.343906   -1.705360   -1.646201
  C     -3.664006   -3.027006   -1.350505
  C     -4.131775   -0.898962   -2.458293
  C     -4.833350   -3.556215   -1.899174
  H     -3.018078   -3.622967   -0.706973
  C     -5.294512   -1.449239   -3.007519
  H     -3.847619    0.137400   -2.643129
  C     -5.643703   -2.771961   -2.727422
  H     -5.107768   -4.588376   -1.681939
  H     -6.553119   -3.195036   -3.153444
  H     -5.929437   -0.835909   -3.646453
  C     -1.855038   -1.078887    0.214057
  C     -0.502723   -0.837441    0.514400
  C     -0.131385   -0.724104    1.860756
  C     -2.832031   -1.188250    1.187584
  C     -2.440738   -1.069454    2.526297
  H     -3.872147   -1.359957    0.915159
  C     -1.101287   -0.842485    2.856148
  H      0.910201   -0.551465    2.129891
  H     -3.191645   -1.154401    3.310722
  H     -0.806461   -0.757588    3.901521
  C      1.631021   -0.388335   -0.626161
  C      2.230515   -0.353291   -1.886516
  C      2.152040   -0.580733   -4.089938
  C      3.473410   -0.201646   -3.761002
  H      1.738188   -0.788662   -5.073979
  C      3.527058   -0.058893   -2.373145
  H      4.386117    0.227259   -1.773445
  H      4.283921   -0.052917   -4.467251
  H      2.172532   -0.141104    0.289637
  C     -0.352675   -3.123278   -2.623759
  H      0.389158   -3.311941   -3.415924
  H     -1.374235   -3.290382   -3.027897
  C     -0.087620   -3.955383   -1.378509
  C     -0.311579   -5.455967   -1.622132
  H     -0.734210   -3.624419   -0.548504
  H      0.947463   -3.785657   -1.044474
  H     -1.348558   -5.655044   -1.929600
  H     -0.107928   -6.034209   -0.710210
  H      0.349664   -5.829008   -2.416398

----------------------------
CARTESIAN COORDINATES (A.U.)
----------------------------
  NO LB      ZA    FRAG     MASS         X           Y           Z
   0 Cr   24.0000    0    52.000   -0.775473   -2.173051   -4.422042
   1 O     8.0000    0    15.999   -4.010304   -2.164109   -2.225236
   2 N     7.0000    0    14.007    0.642293   -1.383360   -1.128919
   3 N     7.0000    0    14.007    2.633747   -1.266511   -5.618199
   4 C     6.0000    0    12.011   -6.319066   -3.222664   -3.110869
   5 C     6.0000    0    12.011   -6.923967   -5.720213   -2.552084
   6 C     6.0000    0    12.011   -7.807923   -1.698792   -4.645500
   7 C     6.0000    0    12.011   -9.133707   -6.720273   -3.588918
   8 H     1.0000    0     1.008   -5.703340   -6.846415   -1.335986
   9 C     6.0000    0    12.011  -10.005177   -2.738665   -5.683387
  10 H     1.0000    0     1.008   -7.270946    0.259649   -4.994790
  11 C     6.0000    0    12.011  -10.665054   -5.238247   -5.154081
  12 H     1.0000    0     1.008   -9.652282   -8.670774   -3.178405
  13 H     1.0000    0     1.008  -12.383600   -6.037744   -5.959145
  14 H     1.0000    0     1.008  -11.205011   -1.579640   -6.890797
  15 C     6.0000    0    12.011   -3.505513   -2.038800    0.404509
  16 C     6.0000    0    12.011   -0.950008   -1.582534    0.972076
  17 C     6.0000    0    12.011   -0.248281   -1.368358    3.516319
  18 C     6.0000    0    12.011   -5.351763   -2.245466    2.244208
  19 C     6.0000    0    12.011   -4.612327   -2.020975    4.774010
  20 H     1.0000    0     1.008   -7.317297   -2.569946    1.729400
  21 C     6.0000    0    12.011   -2.081130   -1.592066    5.397337
  22 H     1.0000    0     1.008    1.720031   -1.042117    4.024911
  23 H     1.0000    0     1.008   -6.031336   -2.181502    6.256358
  24 H     1.0000    0     1.008   -1.523991   -1.431634    7.372806
  25 C     6.0000    0    12.011    3.082183   -0.733848   -1.183272
  26 C     6.0000    0    12.011    4.215062   -0.667624   -3.564999
  27 C     6.0000    0    12.011    4.066767   -1.097426   -7.728862
  28 C     6.0000    0    12.011    6.563793   -0.381056   -7.107263
  29 H     1.0000    0     1.008    3.284699   -1.490356   -9.588430
  30 C     6.0000    0    12.011    6.665173   -0.111292   -4.484594
  31 H     1.0000    0     1.008    8.288560    0.429458   -3.351325
  32 H     1.0000    0     1.008    8.095438   -0.099998   -8.441880
  33 H     1.0000    0     1.008    4.105490   -0.266648    0.547334
  34 C     6.0000    0    12.011   -0.666460   -5.902139   -4.958187
  35 H     1.0000    0     1.008    0.735403   -6.258661   -6.455160
  36 H     1.0000    0     1.008   -2.596927   -6.217921   -5.721895
  37 C     6.0000    0    12.011   -0.165579   -7.474591   -2.605005
  38 C     6.0000    0    12.011   -0.588799  -10.310283   -3.065386
  39 H     1.0000    0     1.008   -1.387456   -6.849159   -1.036522
  40 H     1.0000    0     1.008    1.790446   -7.153855   -1.973770
  41 H     1.0000    0     1.008   -2.548405  -10.686485   -3.646416
  42 H     1.0000    0     1.008   -0.203954  -11.403003   -1.342102
  43 H     1.0000    0     1.008    0.660770  -11.015228   -4.566330

--------------------------------
INTERNAL COORDINATES (ANGSTROEM)
--------------------------------
 Cr     0   0   0     0.000000000000     0.00000000     0.00000000
 O      1   0   0     2.069223135936     0.00000000     0.00000000
 N      1   2   0     1.942760083264    79.34140168     0.00000000
 N      1   2   3     1.971168033222   159.55247908   327.96810733
 C      2   1   3     1.423404654738   121.61365690   194.99693927
 C      5   2   1     1.391635217431   120.08044908    93.48190602
 C      5   2   1     1.389427852000   116.79168406   277.11937362
 C      6   5   2     1.395874219167   117.98408014   183.80350723
 H      6   5   2     1.089276976785   120.57951187     3.99346700
 C      7   5   2     1.398717439244   118.20002396   175.83859279
 H      7   5   2     1.090392545924   120.19389598   354.99184537
 C     10   7   5     1.396417378331   120.11687663     0.50267992
 H      8   6   5     1.089886098202   119.44732827   180.09481118
 H     12  10   7     1.089735505977   119.86885626   179.69286656
 H     10   7   5     1.089742959979   119.54732458   179.90883046
 C      2   1   3     1.418557433847   113.29441769   350.24298609
 C      3   1   2     1.398998306699   117.64897661     9.44265577
 C     17   3   1     1.401217335737   126.71870300   172.61923329
 C     16   2   1     1.383557372510   123.61450257   186.23430262
 C     19  16   2     1.399777101017   117.95910621   181.70070950
 H     19  16   2     1.088825143163   120.72847769     1.60971899
 C     18  17   3     1.394822387464   119.64009554   179.38114181
 H     18  17   3     1.089559096573   120.23185469   358.95037864
 H     20  19  16     1.089219964610   119.30259494   180.14659563
 H     22  18  17     1.089465009576   119.33820090   179.75249586
 C      3   1   2     1.336408673217   114.14892280   188.70541761
 C     26   3   1     1.396107700829   116.15120702     1.31907838
 C      4   1   2     1.352980572596   142.57579346   210.36561573
 C     28   4   1     1.413478896818   110.46189675   183.14691656
 H     28   4   1     1.087586647645   121.39975467     2.98182013
 C     29  28   4     1.396210335884   107.13731339     0.30875975
 H     31  29  28     1.086050838043   127.31616539   180.25198150
 H     29  28   4     1.085281809995   125.69493452   180.33001134
 H     26   3   1     1.092264960055   121.27472240   180.70496983
 C      1   2   3     1.994474070648    96.09097130   108.47247460
 H     35   1   2     1.101560413157   106.93159820   168.04313610
 H     35   1   2     1.111230893663   100.01637733    54.09087847
 C     35   1   2     1.520954452881   115.45962803   293.65094681
 C     38  35   1     1.536639503850   112.27513669   169.52435534
 H     38  35   1     1.102961885264   110.47423769    47.51762412
 H     38  35   1     1.100810610693   109.14439565   291.27544147
 H     39  38  35     1.099769989378   111.00925531   299.85849009
 H     39  38  35     1.098836148520   110.81172322   179.66207496
 H     39  38  35     1.098753587338   111.00455252    59.60511180

---------------------------
INTERNAL COORDINATES (A.U.)
---------------------------
 Cr     0   0   0     0.000000000000     0.00000000     0.00000000
 O      1   0   0     3.910265036893     0.00000000     0.00000000
 N      1   2   0     3.671284501284    79.34140168     0.00000000
 N      1   2   3     3.724967746730   159.55247908   327.96810733
 C      2   1   3     2.689844975204   121.61365690   194.99693927
 C      5   2   1     2.629809439264   120.08044908    93.48190602
 C      5   2   1     2.625638123123   116.79168406   277.11937362
 C      6   5   2     2.637819991627   117.98408014   183.80350723
 H      6   5   2     2.058435170109   120.57951187     3.99346700
 C      7   5   2     2.643192898910   118.20002396   175.83859279
 H      7   5   2     2.060543290266   120.19389598   354.99184537
 C     10   7   5     2.638846413693   120.11687663     0.50267992
 H      8   6   5     2.059586242770   119.44732827   180.09481118
 H     12  10   7     2.059301664706   119.86885626   179.69286656
 H     10   7   5     2.059315750729   119.54732458   179.90883046
 C      2   1   3     2.680685055208   113.29441769   350.24298609
 C      3   1   2     2.643723661481   117.64897661     9.44265577
 C     17   3   1     2.647917018646   126.71870300   172.61923329
 C     16   2   1     2.614544524611   123.61450257   186.23430262
 C     19  16   2     2.645195369456   117.95910621   181.70070950
 H     19  16   2     2.057581328306   120.72847769     1.60971899
 C     18  17   3     2.635832317769   119.64009554   179.38114181
 H     18  17   3     2.058968299246   120.23185469   358.95037864
 H     20  19  16     2.058327432712   119.30259494   180.14659563
 H     22  18  17     2.058790500588   119.33820090   179.75249586
 C      3   1   2     2.525446395377   114.14892280   188.70541761
 C     26   3   1     2.638261208025   116.15120702     1.31907838
 C      4   1   2     2.556762746722   142.57579346   210.36561573
 C     28   4   1     2.671088011063   110.46189675   183.14691656
 H     28   4   1     2.055240910958   121.39975467     2.98182013
 C     29  28   4     2.638455160172   107.13731339     0.30875975
 H     31  29  28     2.052338651416   127.31616539   180.25198150
 H     29  28   4     2.050885399018   125.69493452   180.33001134
 H     26   3   1     2.064081640183   121.27472240   180.70496983
 C      1   2   3     3.769009774732    96.09097130   108.47247460
 H     35   1   2     2.081647500835   106.93159820   168.04313610
 H     35   1   2     2.099922060576   100.01637733    54.09087847
 C     35   1   2     2.874187378112   115.45962803   293.65094681
 C     38  35   1     2.903827828840   112.27513669   169.52435534
 H     38  35   1     2.084295899302   110.47423769    47.51762412
 H     38  35   1     2.080230579524   109.14439565   291.27544147
 H     39  38  35     2.078264090230   111.00925531   299.85849009
 H     39  38  35     2.076499386756   110.81172322   179.66207496
 H     39  38  35     2.076343368733   111.00455252    59.60511180

---------------------
BASIS SET INFORMATION
---------------------
There are 5 groups of distinct atoms

 Group   1 Type Cr  : 17s11p7d1f contracted to 6s4p4d1f pattern {842111/6311/4111/1}
 Group   2 Type O   : 11s6p2d1f contracted to 5s3p2d1f pattern {62111/411/11/1}
 Group   3 Type N   : 11s6p2d1f contracted to 5s3p2d1f pattern {62111/411/11/1}
 Group   4 Type C   : 11s6p2d1f contracted to 5s3p2d1f pattern {62111/411/11/1}
 Group   5 Type H   : 5s1p contracted to 3s1p pattern {311/1}

Atom   0Cr   basis set group =>   1
Atom   1O    basis set group =>   2
Atom   2N    basis set group =>   3
Atom   3N    basis set group =>   3
Atom   4C    basis set group =>   4
Atom   5C    basis set group =>   4
Atom   6C    basis set group =>   4
Atom   7C    basis set group =>   4
Atom   8H    basis set group =>   5
Atom   9C    basis set group =>   4
Atom  10H    basis set group =>   5
Atom  11C    basis set group =>   4
Atom  12H    basis set group =>   5
Atom  13H    basis set group =>   5
Atom  14H    basis set group =>   5
Atom  15C    basis set group =>   4
Atom  16C    basis set group =>   4
Atom  17C    basis set group =>   4
Atom  18C    basis set group =>   4
Atom  19C    basis set group =>   4
Atom  20H    basis set group =>   5
Atom  21C    basis set group =>   4
Atom  22H    basis set group =>   5
Atom  23H    basis set group =>   5
Atom  24H    basis set group =>   5
Atom  25C    basis set group =>   4
Atom  26C    basis set group =>   4
Atom  27C    basis set group =>   4
Atom  28C    basis set group =>   4
Atom  29H    basis set group =>   5
Atom  30C    basis set group =>   4
Atom  31H    basis set group =>   5
Atom  32H    basis set group =>   5
Atom  33H    basis set group =>   5
Atom  34C    basis set group =>   4
Atom  35H    basis set group =>   5
Atom  36H    basis set group =>   5
Atom  37C    basis set group =>   4
Atom  38C    basis set group =>   4
Atom  39H    basis set group =>   5
Atom  40H    basis set group =>   5
Atom  41H    basis set group =>   5
Atom  42H    basis set group =>   5
Atom  43H    basis set group =>   5
---------------------------------
AUXILIARY/J BASIS SET INFORMATION
---------------------------------
There are 5 groups of distinct atoms

 Group   1 Type Cr  : 19s5p5d3f3g contracted to 8s5p5d2f3g pattern {121111111/11111/11111/21/111}
 Group   2 Type O   : 12s5p4d2f1g contracted to 6s4p3d1f1g pattern {711111/2111/211/2/1}
 Group   3 Type N   : 12s5p4d2f1g contracted to 6s4p3d1f1g pattern {711111/2111/211/2/1}
 Group   4 Type C   : 12s5p4d2f1g contracted to 6s4p3d1f1g pattern {711111/2111/211/2/1}
 Group   5 Type H   : 5s2p1d contracted to 3s1p1d pattern {311/2/1}

Atom   0Cr   basis set group =>   1
Atom   1O    basis set group =>   2
Atom   2N    basis set group =>   3
Atom   3N    basis set group =>   3
Atom   4C    basis set group =>   4
Atom   5C    basis set group =>   4
Atom   6C    basis set group =>   4
Atom   7C    basis set group =>   4
Atom   8H    basis set group =>   5
Atom   9C    basis set group =>   4
Atom  10H    basis set group =>   5
Atom  11C    basis set group =>   4
Atom  12H    basis set group =>   5
Atom  13H    basis set group =>   5
Atom  14H    basis set group =>   5
Atom  15C    basis set group =>   4
Atom  16C    basis set group =>   4
Atom  17C    basis set group =>   4
Atom  18C    basis set group =>   4
Atom  19C    basis set group =>   4
Atom  20H    basis set group =>   5
Atom  21C    basis set group =>   4
Atom  22H    basis set group =>   5
Atom  23H    basis set group =>   5
Atom  24H    basis set group =>   5
Atom  25C    basis set group =>   4
Atom  26C    basis set group =>   4
Atom  27C    basis set group =>   4
Atom  28C    basis set group =>   4
Atom  29H    basis set group =>   5
Atom  30C    basis set group =>   4
Atom  31H    basis set group =>   5
Atom  32H    basis set group =>   5
Atom  33H    basis set group =>   5
Atom  34C    basis set group =>   4
Atom  35H    basis set group =>   5
Atom  36H    basis set group =>   5
Atom  37C    basis set group =>   4
Atom  38C    basis set group =>   4
Atom  39H    basis set group =>   5
Atom  40H    basis set group =>   5
Atom  41H    basis set group =>   5
Atom  42H    basis set group =>   5
Atom  43H    basis set group =>   5
------------------------------------------------------------------------------
                           ORCA GTO INTEGRAL CALCULATION
                           -- RI-GTO INTEGRALS CHOSEN --
------------------------------------------------------------------------------

                         BASIS SET STATISTICS AND STARTUP INFO

Gaussian basis set:
 # of primitive gaussian shells          ...  616
 # of primitive gaussian functions       ... 1310
 # of contracted shells                  ...  348
 # of contracted basis functions         ...  878
 Highest angular momentum                ...    3
 Maximum contraction depth               ...    8
Auxiliary gaussian basis set:
 # of primitive gaussian shells          ...  747
 # of primitive gaussian functions       ... 2037
 # of contracted shells                  ...  468
 # of contracted aux-basis functions     ... 1436
 Highest angular momentum                ...    4
 Maximum contraction depth               ...   12
Ratio of auxiliary to basis functions    ...  1.64
Integral package used                  ... LIBINT
 One Electron integrals                  ... done
 Ordering auxiliary basis shells         ... done
 Integral threshhold             Thresh  ...  1.000e-10
 Primitive cut-off               TCut    ...  1.000e-11
 Pre-screening matrix                    ... done
 Shell pair data                         ... 
 Ordering of the shell pairs             ... done (   0.005 sec) 43585 of 60726 pairs
 Determination of significant pairs      ... done (   0.000 sec)
 Creation of shell pair data             ... done (   0.003 sec)
 Storage of shell pair data              ... done (   0.004 sec)
 Shell pair data done in (   0.012 sec)
 Computing two index integrals           ... done
 Cholesky decomposition of the V-matrix  ... done


Timings:
 Total evaluation time                   ...   0.629 sec (  0.010 min)
 One electron matrix time                ...   0.211 sec (  0.004 min) = 33.6%
 Schwartz matrix evaluation time         ...   0.351 sec (  0.006 min) = 55.7%
 Two index repulsion integral time       ...   0.020 sec (  0.000 min) =  3.3%
 Cholesky decomposition of V             ...   0.024 sec (  0.000 min) =  3.8%
 Three index repulsion integral time     ...   0.000 sec (  0.000 min) =  0.0%

-------------------------------------------------------------------------------
                                 ORCA SCF
-------------------------------------------------------------------------------

------------
SCF SETTINGS
------------
Hamiltonian:
 Density Functional     Method          .... DFT(GTOs)
 Exchange Functional    Exchange        .... B88
   X-Alpha parameter    XAlpha          ....  0.666667
   Becke's b parameter  XBeta           ....  0.004200
 Correlation Functional Correlation     .... P86
 LDA part of GGA corr.  LDAOpt          .... PW91-LDA
 Gradients option       PostSCFGGA      .... off
   Density functional embedding theory  .... OFF
 RI-approximation to the Coulomb term is turned on
   Number of auxiliary basis functions  .... 1436
   RIJ-COSX (HFX calculated with COS-X)).... on


General Settings:
 Integral files         IntName         .... IM2_2_Freq2
 Hartree-Fock type      HFTyp           .... UHF
 Total Charge           Charge          ....    1
 Multiplicity           Mult            ....    4
 Number of Electrons    NEL             ....  185
 Basis Dimension        Dim             ....  878
 Nuclear Repulsion      ENuc            ....   2424.6552447665 Eh

Convergence Acceleration:
 DIIS                   CNVDIIS         .... on
   Start iteration      DIISMaxIt       ....    12
   Startup error        DIISStart       ....  0.200000
   # of expansion vecs  DIISMaxEq       ....     5
   Bias factor          DIISBfac        ....   1.050
   Max. coefficient     DIISMaxC        ....  10.000
 Newton-Raphson         CNVNR           .... off
 SOSCF                  CNVSOSCF        .... off
 Level Shifting         CNVShift        .... on
   Level shift para.    LevelShift      ....    0.2500
   Turn off err/grad.   ShiftErr        ....    0.0010
 Zerner damping         CNVZerner       .... off
 Static damping         CNVDamp         .... on
   Fraction old density DampFac         ....    0.7000
   Max. Damping (<1)    DampMax         ....    0.9800
   Min. Damping (>=0)   DampMin         ....    0.0000
   Turn off err/grad.   DampErr         ....    0.1000
 Fernandez-Rico         CNVRico         .... off

SCF Procedure:
 Maximum # iterations   MaxIter         ....  1000
 SCF integral mode      SCFMode         .... Direct
   Integral package                     .... LIBINT
 Reset frequency        DirectResetFreq ....    20
 Integral Threshold     Thresh          ....  1.000e-10 Eh
 Primitive CutOff       TCut            ....  1.000e-11 Eh

Convergence Tolerance:
 Convergence Check Mode ConvCheckMode   .... Total+1el-Energy
 Convergence forced     ConvForced      .... 0
 Energy Change          TolE            ....  1.000e-06 Eh
 1-El. energy change                    ....  1.000e-03 Eh
 DIIS Error             TolErr          ....  1.000e-06


Diagonalization of the overlap matrix:
Smallest eigenvalue                        ... 5.859e-06
Time for diagonalization                   ...    0.082 sec
Threshold for overlap eigenvalues          ... 1.000e-08
Number of eigenvalues below threshold      ... 0
Time for construction of square roots      ...    0.054 sec
Total time needed                          ...    0.138 sec

---------------------
INITIAL GUESS: MOREAD
---------------------
Guess MOs are being read from file: IM2_2_Tight2.ges
Input Geometry matches current geometry (good)
Input basis set matches current basis set (good)
MOs were renormalized
MOs were reorthogonalized (Cholesky)
                      ------------------
                      INITIAL GUESS DONE (   0.3 sec)
                      ------------------
-------------------
DFT GRID GENERATION
-------------------

General Integration Accuracy     IntAcc      ...  5.340
Radial Grid Type                 RadialGrid  ... Gauss-Chebyshev
Angular Grid (max. acc.)         AngularGrid ... Lebedev-590
Angular grid pruning method      GridPruning ... 3 (G Style)
Weight generation scheme         WeightScheme... Becke
Basis function cutoff            BFCut       ...    1.0000e-10
Integration weight cutoff        WCut        ...    1.0000e-14
Grids for H and He will be reduced by one unit

# of grid points (after initial pruning)     ... 623684 (   0.4 sec)
# of grid points (after weights+screening)   ... 534434 (   3.6 sec)
nearest neighbour list constructed           ...    0.0 sec
Grid point re-assignment to atoms done       ...    0.0 sec
Grid point division into batches done        ...    3.3 sec
Reduced shell lists constructed in    9.0 sec

Total number of grid points                  ...   534434
Total number of batches                      ...     8368
Average number of points per batch           ...       63
Average number of grid points per atom       ...    12146
Average number of shells per batch           ...   128.01 (36.79%)
Average number of basis functions per batch  ...   308.35 (35.12%)
Average number of large shells per batch     ...    79.87 (62.40%)
Average number of large basis fcns per batch ...   196.18 (63.62%)
Maximum spatial batch extension              ...  22.88, 24.16, 21.66 au
Average spatial batch extension              ...   1.60,  1.64,  1.59 au

Time for grid setup =   13.006 sec

--------------------
COSX GRID GENERATION
--------------------

General Integration Accuracy     IntAcc      ...  3.340
Radial Grid Type                 RadialGrid  ... Gauss-Chebyshev
Angular Grid (max. acc.)         AngularGrid ... Lebedev-50
Angular grid pruning method      GridPruning ... 3 (G Style)
Weight generation scheme         WeightScheme... Becke
Basis function cutoff            BFCut       ...    1.0000e-10
Integration weight cutoff        WCut        ...    1.0000e-14
Grids for H and He will be reduced by one unit

# of grid points (after initial pruning)     ...  20754 (   0.0 sec)
# of grid points (after weights+screening)   ...  18615 (   0.1 sec)
nearest neighbour list constructed           ...    0.0 sec
Grid point re-assignment to atoms done       ...    0.0 sec
Grid point division into batches done        ...    0.0 sec
Reduced shell lists constructed in    0.3 sec

Total number of grid points                  ...    18615
Total number of batches                      ...      313
Average number of points per batch           ...       59
Average number of grid points per atom       ...      423
Average number of shells per batch           ...   164.84 (47.37%)
Average number of basis functions per batch  ...   407.36 (46.40%)
Average number of large shells per batch     ...   107.15 (65.00%)
Average number of large basis fcns per batch ...   268.39 (65.88%)
Maximum spatial batch extension              ...  17.10, 20.75, 21.47 au
Average spatial batch extension              ...   4.42,  4.95,  4.33 au

Overlap Fitting                  UseSFitting ... on
Constructing numerical overlap ... done (      0.2 sec)
Inverting numerical overlap    ... done (      0.0 sec)
Obtaining analytic overlap     ... done (      0.0 sec)
Final contraction and storage  ... done (      0.0 sec)


General Integration Accuracy     IntAcc      ...  3.670
Radial Grid Type                 RadialGrid  ... Gauss-Chebyshev
Angular Grid (max. acc.)         AngularGrid ... Lebedev-50
Angular grid pruning method      GridPruning ... 3 (G Style)
Weight generation scheme         WeightScheme... Becke
Basis function cutoff            BFCut       ...    1.0000e-10
Integration weight cutoff        WCut        ...    1.0000e-14
Grids for H and He will be reduced by one unit

# of grid points (after initial pruning)     ...  26236 (   0.0 sec)
# of grid points (after weights+screening)   ...  23441 (   0.1 sec)
nearest neighbour list constructed           ...    0.0 sec
Grid point re-assignment to atoms done       ...    0.0 sec
Grid point division into batches done        ...    0.0 sec
Reduced shell lists constructed in    0.3 sec

Total number of grid points                  ...    23441
Total number of batches                      ...      386
Average number of points per batch           ...       60
Average number of grid points per atom       ...      533
Average number of shells per batch           ...   160.24 (46.05%)
Average number of basis functions per batch  ...   394.88 (44.98%)
Average number of large shells per batch     ...   103.29 (64.46%)
Average number of large basis fcns per batch ...   258.18 (65.38%)
Maximum spatial batch extension              ...  18.35, 19.61, 20.63 au
Average spatial batch extension              ...   4.15,  4.65,  4.26 au

Overlap Fitting                  UseSFitting ... on
Constructing numerical overlap ... done (      0.3 sec)
Inverting numerical overlap    ... done (      0.0 sec)
Obtaining analytic overlap     ... done (      0.0 sec)
Final contraction and storage  ... done (      0.0 sec)


General Integration Accuracy     IntAcc      ...  4.010
Radial Grid Type                 RadialGrid  ... Gauss-Chebyshev
Angular Grid (max. acc.)         AngularGrid ... Lebedev-110
Angular grid pruning method      GridPruning ... 3 (G Style)
Weight generation scheme         WeightScheme... Becke
Basis function cutoff            BFCut       ...    1.0000e-10
Integration weight cutoff        WCut        ...    1.0000e-14
Grids for H and He will be reduced by one unit

# of grid points (after initial pruning)     ...  49682 (   0.0 sec)
# of grid points (after weights+screening)   ...  44039 (   0.3 sec)
nearest neighbour list constructed           ...    0.0 sec
Grid point re-assignment to atoms done       ...    0.0 sec
Grid point division into batches done        ...    0.0 sec
Reduced shell lists constructed in    0.6 sec

Total number of grid points                  ...    44039
Total number of batches                      ...      708
Average number of points per batch           ...       62
Average number of grid points per atom       ...     1001
Average number of shells per batch           ...   153.48 (44.10%)
Average number of basis functions per batch  ...   376.87 (42.92%)
Average number of large shells per batch     ...    98.61 (64.25%)
Average number of large basis fcns per batch ...   245.75 (65.21%)
Maximum spatial batch extension              ...  21.17, 29.45, 21.85 au
Average spatial batch extension              ...   3.51,  3.93,  3.55 au

Overlap Fitting                  UseSFitting ... on
Constructing numerical overlap ... done (      0.5 sec)
Inverting numerical overlap    ... done (      0.0 sec)
Obtaining analytic overlap     ... done (      0.0 sec)
Final contraction and storage  ... done (      0.0 sec)

Time for X-Grid setup             =    2.955 sec
--------------
SCF ITERATIONS
--------------
ITER       Energy         Delta-E        Max-DP      RMS-DP      [F,P]     Damp
               ***  Starting incremental Fock matrix formation  ***
  0  -2003.7016110391   0.000000000000 0.00084275  0.00000386  0.0000019 0.7000
                 **** Energy Check signals convergence ****

               *****************************************************
               *                     SUCCESS                       *
               *           SCF CONVERGED AFTER   1 CYCLES          *
               *****************************************************

Setting up the final grid:

General Integration Accuracy     IntAcc      ...  5.340
Radial Grid Type                 RadialGrid  ... Gauss-Chebyshev
Angular Grid (max. acc.)         AngularGrid ... Lebedev-590
Angular grid pruning method      GridPruning ... 3 (G Style)
Weight generation scheme         WeightScheme... Becke
Basis function cutoff            BFCut       ...    1.0000e-10
Integration weight cutoff        WCut        ...    1.0000e-14
Grids for H and He will be reduced by one unit

# of grid points (after initial pruning)     ... 623684 (   0.2 sec)
# of grid points (after weights+screening)   ... 534434 (   3.6 sec)
nearest neighbour list constructed           ...    0.0 sec
Grid point re-assignment to atoms done       ...    0.0 sec
Grid point division into batches done        ...    3.3 sec
Reduced shell lists constructed in    9.1 sec

Total number of grid points                  ...   534434
Total number of batches                      ...     8368
Average number of points per batch           ...       63
Average number of grid points per atom       ...    12146
Average number of shells per batch           ...   128.01 (36.79%)
Average number of basis functions per batch  ...   308.35 (35.12%)
Average number of large shells per batch     ...    79.87 (62.40%)
Average number of large basis fcns per batch ...   196.18 (63.62%)
Maximum spatial batch extension              ...  22.88, 24.16, 21.66 au
Average spatial batch extension              ...   1.60,  1.64,  1.59 au

Final grid set up in   12.9 sec
Final integration                            ... done (  24.1 sec)
Change in XC energy                          ...     0.000001143
Integrated number of electrons               ...   184.999971095
Previous integrated no of electrons          ...   184.999971097

----------------
TOTAL SCF ENERGY
----------------

Total Energy       :        -2003.70160971 Eh          -54523.49272 eV

Components:
Nuclear Repulsion  :         2424.65524477 Eh           65978.22348 eV
Electronic Energy  :        -4428.35685448 Eh         -120501.71620 eV
One Electron Energy:        -7536.90491365 Eh         -205089.60925 eV
Two Electron Energy:         3108.54805918 Eh           84587.89306 eV

Virial components:
Potential Energy   :        -4000.98458087 Eh         -108872.32541 eV
Kinetic Energy     :         1997.28297116 Eh           54348.83269 eV
Virial Ratio       :            2.00321369


DFT components:
N(Alpha)           :       93.999985111747 electrons
N(Beta)            :       90.999985982887 electrons
N(Total)           :      184.999971094634 electrons
E(X)               :     -180.116841847371 Eh       
E(C)               :       -7.054614452751 Eh       
E(XC)              :     -187.171456300122 Eh       
DFET-embed. en.    :        0.000000000000 Eh       

---------------
SCF CONVERGENCE
---------------

  Last Energy change         ...    1.8731e-07  Tolerance :   1.0000e-06
  Last MAX-Density change    ...    3.6631e-04  Tolerance :   1.0000e-05
  Last RMS-Density change    ...    1.6851e-06  Tolerance :   1.0000e-06
  Last DIIS Error            ...    1.1970e-06  Tolerance :   1.0000e-06

             **** THE GBW FILE WAS UPDATED (IM2_2_Freq2.gbw) ****
             **** DENSITY FILE WAS UPDATED (IM2_2_Freq2.scfp) ****
             **** ENERGY FILE WAS UPDATED (IM2_2_Freq2.en.tmp) ****
----------------------
UHF SPIN CONTAMINATION
----------------------

Warning: in a DFT calculation there is little theoretical justification to 
         calculate <S**2> as in Hartree-Fock theory. We will do it anyways
         but you should keep in mind that the values have only limited relevance

Expectation value of <S**2>     :     3.816067
Ideal value S*(S+1) for S=1.5   :     3.750000
Deviation                       :     0.066067

             **** THE GBW FILE WAS UPDATED (IM2_2_Freq2.gbw) ****
             **** DENSITY FILE WAS UPDATED (IM2_2_Freq2.scfp) ****
----------------
ORBITAL ENERGIES
----------------
                 SPIN UP ORBITALS
  NO   OCC          E(Eh)            E(eV) 
   0   1.0000    -214.700814     -5842.3062 
   1   1.0000     -24.430531      -664.7885 
   2   1.0000     -20.796547      -565.9028 
   3   1.0000     -20.793521      -565.8205 
   4   1.0000     -20.790362      -565.7345 
   5   1.0000     -18.989581      -516.7328 
   6   1.0000     -14.171420      -385.6239 
   7   1.0000     -14.143364      -384.8605 
   8   1.0000     -10.099945      -274.8335 
   9   1.0000     -10.097660      -274.7713 
  10   1.0000     -10.091050      -274.5914 
  11   1.0000     -10.077208      -274.2148 
  12   1.0000     -10.055605      -273.6269 
  13   1.0000     -10.052443      -273.5409 
  14   1.0000     -10.035339      -273.0755 
  15   1.0000     -10.034579      -273.0548 
  16   1.0000     -10.033045      -273.0130 
  17   1.0000     -10.032775      -273.0057 
  18   1.0000     -10.028739      -272.8959 
  19   1.0000     -10.028197      -272.8811 
  20   1.0000     -10.025350      -272.8036 
  21   1.0000     -10.025223      -272.8002 
  22   1.0000     -10.023229      -272.7459 
  23   1.0000     -10.023195      -272.7450 
  24   1.0000     -10.012651      -272.4581 
  25   1.0000     -10.010870      -272.4096 
  26   1.0000     -10.009286      -272.3665 
  27   1.0000      -9.986289      -271.7407 
  28   1.0000      -2.912939       -79.2651 
  29   1.0000      -1.911061       -52.0026 
  30   1.0000      -1.904371       -51.8206 
  31   1.0000      -1.895441       -51.5776 
  32   1.0000      -1.150289       -31.3010 
  33   1.0000      -1.020796       -27.7773 
  34   1.0000      -0.993397       -27.0317 
  35   1.0000      -0.919499       -25.0208 
  36   1.0000      -0.905120       -24.6296 
  37   1.0000      -0.843673       -22.9575 
  38   1.0000      -0.825142       -22.4533 
  39   1.0000      -0.821670       -22.3588 
  40   1.0000      -0.816148       -22.2085 
  41   1.0000      -0.811092       -22.0709 
  42   1.0000      -0.798446       -21.7268 
  43   1.0000      -0.779447       -21.2098 
  44   1.0000      -0.728230       -19.8161 
  45   1.0000      -0.716101       -19.4861 
  46   1.0000      -0.715219       -19.4621 
  47   1.0000      -0.687161       -18.6986 
  48   1.0000      -0.672130       -18.2896 
  49   1.0000      -0.660657       -17.9774 
  50   1.0000      -0.648339       -17.6422 
  51   1.0000      -0.638025       -17.3615 
  52   1.0000      -0.627040       -17.0626 
  53   1.0000      -0.615324       -16.7438 
  54   1.0000      -0.606610       -16.5067 
  55   1.0000      -0.591060       -16.0836 
  56   1.0000      -0.585263       -15.9258 
  57   1.0000      -0.571860       -15.5611 
  58   1.0000      -0.562632       -15.3100 
  59   1.0000      -0.537600       -14.6288 
  60   1.0000      -0.536723       -14.6050 
  61   1.0000      -0.529452       -14.4071 
  62   1.0000      -0.526517       -14.3273 
  63   1.0000      -0.522762       -14.2251 
  64   1.0000      -0.516059       -14.0427 
  65   1.0000      -0.507423       -13.8077 
  66   1.0000      -0.503881       -13.7113 
  67   1.0000      -0.499581       -13.5943 
  68   1.0000      -0.487344       -13.2613 
  69   1.0000      -0.475074       -12.9274 
  70   1.0000      -0.472408       -12.8549 
  71   1.0000      -0.471353       -12.8262 
  72   1.0000      -0.466485       -12.6937 
  73   1.0000      -0.463114       -12.6020 
  74   1.0000      -0.458435       -12.4746 
  75   1.0000      -0.454872       -12.3777 
  76   1.0000      -0.448230       -12.1970 
  77   1.0000      -0.444084       -12.0841 
  78   1.0000      -0.441605       -12.0167 
  79   1.0000      -0.436594       -11.8803 
  80   1.0000      -0.433993       -11.8096 
  81   1.0000      -0.426953       -11.6180 
  82   1.0000      -0.413404       -11.2493 
  83   1.0000      -0.403310       -10.9746 
  84   1.0000      -0.369584       -10.0569 
  85   1.0000      -0.366854        -9.9826 
  86   1.0000      -0.365100        -9.9349 
  87   1.0000      -0.363735        -9.8977 
  88   1.0000      -0.361135        -9.8270 
  89   1.0000      -0.349554        -9.5118 
  90   1.0000      -0.341745        -9.2993 
  91   1.0000      -0.337015        -9.1707 
  92   1.0000      -0.318741        -8.6734 
  93   1.0000      -0.303420        -8.2565 
  94   0.0000      -0.256348        -6.9756 
  95   0.0000      -0.239412        -6.5147 
  96   0.0000      -0.204734        -5.5711 
  97   0.0000      -0.176850        -4.8123 
  98   0.0000      -0.175222        -4.7680 
  99   0.0000      -0.162829        -4.4308 
 100   0.0000      -0.160985        -4.3806 
 101   0.0000      -0.141121        -3.8401 
 102   0.0000      -0.105409        -2.8683 
 103   0.0000      -0.097113        -2.6426 
 104   0.0000      -0.088824        -2.4170 
 105   0.0000      -0.079743        -2.1699 
 106   0.0000      -0.076045        -2.0693 
 107   0.0000      -0.073736        -2.0065 
 108   0.0000      -0.064755        -1.7621 
 109   0.0000      -0.062511        -1.7010 
 110   0.0000      -0.051971        -1.4142 
 111   0.0000      -0.047857        -1.3022 
 112   0.0000      -0.037802        -1.0286 
 113   0.0000      -0.035700        -0.9714 
 114   0.0000      -0.032932        -0.8961 
 115   0.0000      -0.031109        -0.8465 
 116   0.0000      -0.028859        -0.7853 
 117   0.0000      -0.022726        -0.6184 
 118   0.0000      -0.018785        -0.5112 
 119   0.0000      -0.015182        -0.4131 
 120   0.0000      -0.013689        -0.3725 
 121   0.0000      -0.012767        -0.3474 
 122   0.0000      -0.011521        -0.3135 
 123   0.0000      -0.008070        -0.2196 
 124   0.0000      -0.000262        -0.0071 
 125   0.0000       0.006591         0.1794 
 126   0.0000       0.007074         0.1925 
 127   0.0000       0.015215         0.4140 
 128   0.0000       0.017031         0.4634 
 129   0.0000       0.022377         0.6089 
 130   0.0000       0.023918         0.6509 
 131   0.0000       0.029104         0.7920 
 132   0.0000       0.036555         0.9947 
 133   0.0000       0.039327         1.0701 
 134   0.0000       0.044226         1.2035 
 135   0.0000       0.049764         1.3541 
 136   0.0000       0.053932         1.4676 
 137   0.0000       0.055171         1.5013 
 138   0.0000       0.056990         1.5508 
 139   0.0000       0.058144         1.5822 
 140   0.0000       0.064272         1.7489 
 141   0.0000       0.070045         1.9060 
 142   0.0000       0.075118         2.0441 
 143   0.0000       0.079926         2.1749 
 144   0.0000       0.083285         2.2663 
 145   0.0000       0.086468         2.3529 
 146   0.0000       0.089379         2.4321 
 147   0.0000       0.092148         2.5075 
 148   0.0000       0.098060         2.6683 
 149   0.0000       0.100438         2.7330 
 150   0.0000       0.107240         2.9182 
 151   0.0000       0.108978         2.9655 
 152   0.0000       0.113390         3.0855 
 153   0.0000       0.114996         3.1292 
 154   0.0000       0.120347         3.2748 
 155   0.0000       0.126091         3.4311 
 156   0.0000       0.129022         3.5109 
 157   0.0000       0.131442         3.5767 
 158   0.0000       0.131593         3.5808 
 159   0.0000       0.135854         3.6968 
 160   0.0000       0.140618         3.8264 
 161   0.0000       0.143024         3.8919 
 162   0.0000       0.147668         4.0182 
 163   0.0000       0.152313         4.1447 
 164   0.0000       0.157366         4.2821 
 165   0.0000       0.165779         4.5111 
 166   0.0000       0.168179         4.5764 
 167   0.0000       0.171806         4.6751 
 168   0.0000       0.173795         4.7292 
 169   0.0000       0.178148         4.8476 
 170   0.0000       0.183669         4.9979 
 171   0.0000       0.186085         5.0636 
 172   0.0000       0.192098         5.2273 
 173   0.0000       0.192730         5.2444 
 174   0.0000       0.200631         5.4594 
 175   0.0000       0.202169         5.5013 
 176   0.0000       0.204824         5.5735 
 177   0.0000       0.210213         5.7202 
 178   0.0000       0.217776         5.9260 
 179   0.0000       0.219342         5.9686 
 180   0.0000       0.221094         6.0163 
 181   0.0000       0.223204         6.0737 
 182   0.0000       0.229727         6.2512 
 183   0.0000       0.233292         6.3482 
 184   0.0000       0.236354         6.4315 
 185   0.0000       0.241901         6.5825 
 186   0.0000       0.246105         6.6969 
 187   0.0000       0.249111         6.7787 
 188   0.0000       0.253275         6.8920 
 189   0.0000       0.256618         6.9829 
 190   0.0000       0.257694         7.0122 
 191   0.0000       0.260869         7.0986 
 192   0.0000       0.265725         7.2307 
 193   0.0000       0.269267         7.3271 
 194   0.0000       0.275761         7.5038 
 195   0.0000       0.278855         7.5880 
 196   0.0000       0.280142         7.6231 
 197   0.0000       0.285108         7.7582 
 198   0.0000       0.287506         7.8234 
 199   0.0000       0.293714         7.9924 
 200   0.0000       0.297758         8.1024 
 201   0.0000       0.300444         8.1755 
 202   0.0000       0.303675         8.2634 
 203   0.0000       0.306134         8.3303 
 204   0.0000       0.310354         8.4452 
 205   0.0000       0.315128         8.5751 
 206   0.0000       0.316727         8.6186 
 207   0.0000       0.318350         8.6627 
 208   0.0000       0.325366         8.8537 
 209   0.0000       0.329437         8.9644 
 210   0.0000       0.331099         9.0097 
 211   0.0000       0.336879         9.1669 
 212   0.0000       0.337896         9.1946 
 213   0.0000       0.339309         9.2331 
 214   0.0000       0.345372         9.3980 
 215   0.0000       0.346634         9.4324 
 216   0.0000       0.351386         9.5617 
 217   0.0000       0.352142         9.5823 
 218   0.0000       0.356145         9.6912 
 219   0.0000       0.357742         9.7346 
 220   0.0000       0.361141         9.8271 
 221   0.0000       0.364458         9.9174 
 222   0.0000       0.369745        10.0613 
 223   0.0000       0.372561        10.1379 
 224   0.0000       0.380198        10.3457 
 225   0.0000       0.385102        10.4792 
 226   0.0000       0.390617        10.6292 
 227   0.0000       0.395290        10.7564 
 228   0.0000       0.397610        10.8195 
 229   0.0000       0.404749        11.0138 
 230   0.0000       0.407850        11.0982 
 231   0.0000       0.413164        11.2428 
 232   0.0000       0.417504        11.3609 
 233   0.0000       0.421844        11.4789 
 234   0.0000       0.428241        11.6530 
 235   0.0000       0.435173        11.8417 
 236   0.0000       0.437737        11.9114 
 237   0.0000       0.442711        12.0468 
 238   0.0000       0.455582        12.3970 
 239   0.0000       0.462001        12.5717 
 240   0.0000       0.464580        12.6419 
 241   0.0000       0.470826        12.8118 
 242   0.0000       0.474401        12.9091 
 243   0.0000       0.477476        12.9928 
 244   0.0000       0.481704        13.1078 
 245   0.0000       0.488482        13.2923 
 246   0.0000       0.497513        13.5380 
 247   0.0000       0.499748        13.5988 
 248   0.0000       0.510069        13.8797 
 249   0.0000       0.512567        13.9477 
 250   0.0000       0.515224        14.0200 
 251   0.0000       0.518078        14.0976 
 252   0.0000       0.524006        14.2589 
 253   0.0000       0.531150        14.4533 
 254   0.0000       0.532793        14.4980 
 255   0.0000       0.538313        14.6482 
 256   0.0000       0.546552        14.8724 
 257   0.0000       0.553428        15.0595 
 258   0.0000       0.559984        15.2379 
 259   0.0000       0.563444        15.3321 
 260   0.0000       0.570420        15.5219 
 261   0.0000       0.573188        15.5972 
 262   0.0000       0.577871        15.7247 
 263   0.0000       0.581442        15.8218 
 264   0.0000       0.583793        15.8858 
 265   0.0000       0.599465        16.3123 
 266   0.0000       0.608402        16.5555 
 267   0.0000       0.610346        16.6084 
 268   0.0000       0.615136        16.7387 
 269   0.0000       0.619436        16.8557 
 270   0.0000       0.624277        16.9874 
 271   0.0000       0.627299        17.0697 
 272   0.0000       0.633013        17.2252 
 273   0.0000       0.638482        17.3740 
 274   0.0000       0.643722        17.5166 
 275   0.0000       0.647502        17.6194 
 276   0.0000       0.649122        17.6635 
 277   0.0000       0.662374        18.0241 
 278   0.0000       0.667685        18.1686 
 279   0.0000       0.671944        18.2845 
 280   0.0000       0.675264        18.3749 
 281   0.0000       0.680930        18.5291 
 282   0.0000       0.686534        18.6815 
 283   0.0000       0.701120        19.0784 
 284   0.0000       0.703564        19.1449 
 285   0.0000       0.710063        19.3218 
 286   0.0000       0.716772        19.5044 
 287   0.0000       0.726612        19.7721 
 288   0.0000       0.734886        19.9973 
 289   0.0000       0.740070        20.1383 
 290   0.0000       0.746571        20.3152 
 291   0.0000       0.754852        20.5406 
 292   0.0000       0.758252        20.6331 
 293   0.0000       0.759979        20.6801 
 294   0.0000       0.768207        20.9040 
 295   0.0000       0.779367        21.2077 
 296   0.0000       0.781241        21.2586 
 297   0.0000       0.787186        21.4204 
 298   0.0000       0.794136        21.6096 
 299   0.0000       0.796615        21.6770 
 300   0.0000       0.806492        21.9458 
 301   0.0000       0.807394        21.9703 
 302   0.0000       0.813168        22.1274 
 303   0.0000       0.830741        22.6056 
 304   0.0000       0.836413        22.7600 
 305   0.0000       0.842542        22.9267 
 306   0.0000       0.850157        23.1340 
 307   0.0000       0.854598        23.2548 
 308   0.0000       0.858843        23.3703 
 309   0.0000       0.869531        23.6611 
 310   0.0000       0.878780        23.9128 
 311   0.0000       0.888070        24.1656 
 312   0.0000       0.894857        24.3503 
 313   0.0000       0.899888        24.4872 
 314   0.0000       0.902047        24.5459 
 315   0.0000       0.907474        24.6936 
 316   0.0000       0.916106        24.9285 
 317   0.0000       0.920367        25.0444 
 318   0.0000       0.928008        25.2524 
 319   0.0000       0.928320        25.2609 
 320   0.0000       0.942342        25.6424 
 321   0.0000       0.949192        25.8288 
 322   0.0000       0.958347        26.0779 
 323   0.0000       0.960648        26.1405 
 324   0.0000       0.960937        26.1484 
 325   0.0000       0.967444        26.3255 
 326   0.0000       0.971482        26.4354 
 327   0.0000       0.980209        26.6728 
 328   0.0000       0.989601        26.9284 
 329   0.0000       1.001315        27.2472 
 330   0.0000       1.006006        27.3748 
 331   0.0000       1.010206        27.4891 
 332   0.0000       1.012908        27.5626 
 333   0.0000       1.026604        27.9353 
 334   0.0000       1.032334        28.0912 
 335   0.0000       1.042389        28.3649 
 336   0.0000       1.045517        28.4500 
 337   0.0000       1.048874        28.5413 
 338   0.0000       1.052922        28.6515 
 339   0.0000       1.058437        28.8015 
 340   0.0000       1.059934        28.8423 
 341   0.0000       1.066193        29.0126 
 342   0.0000       1.073104        29.2006 
 343   0.0000       1.074788        29.2465 
 344   0.0000       1.084121        29.5004 
 345   0.0000       1.085900        29.5488 
 346   0.0000       1.098001        29.8781 
 347   0.0000       1.099360        29.9151 
 348   0.0000       1.105577        30.0843 
 349   0.0000       1.108582        30.1661 
 350   0.0000       1.114187        30.3186 
 351   0.0000       1.124665        30.6037 
 352   0.0000       1.132409        30.8144 
 353   0.0000       1.132613        30.8200 
 354   0.0000       1.135091        30.8874 
 355   0.0000       1.144750        31.1502 
 356   0.0000       1.150249        31.2999 
 357   0.0000       1.175658        31.9913 
 358   0.0000       1.176775        32.0217 
 359   0.0000       1.184729        32.2381 
 360   0.0000       1.198254        32.6061 
 361   0.0000       1.206486        32.8302 
 362   0.0000       1.224080        33.3089 
 363   0.0000       1.229288        33.4506 
 364   0.0000       1.231659        33.5151 
 365   0.0000       1.242842        33.8194 
 366   0.0000       1.246829        33.9279 
 367   0.0000       1.257086        34.2070 
 368   0.0000       1.263340        34.3772 
 369   0.0000       1.277214        34.7548 
 370   0.0000       1.282030        34.8858 
 371   0.0000       1.288809        35.0703 
 372   0.0000       1.292671        35.1754 
 373   0.0000       1.299139        35.3514 
 374   0.0000       1.306705        35.5573 
 375   0.0000       1.311850        35.6973 
 376   0.0000       1.321090        35.9487 
 377   0.0000       1.326297        36.0904 
 378   0.0000       1.333779        36.2940 
 379   0.0000       1.338551        36.4238 
 380   0.0000       1.341428        36.5021 
 381   0.0000       1.350031        36.7362 
 382   0.0000       1.358497        36.9666 
 383   0.0000       1.362082        37.0641 
 384   0.0000       1.366740        37.1909 
 385   0.0000       1.369411        37.2636 
 386   0.0000       1.374374        37.3986 
 387   0.0000       1.382045        37.6074 
 388   0.0000       1.388486        37.7826 
 389   0.0000       1.394723        37.9523 
 390   0.0000       1.401473        38.1360 
 391   0.0000       1.409090        38.3433 
 392   0.0000       1.412258        38.4295 
 393   0.0000       1.415716        38.5236 
 394   0.0000       1.424500        38.7626 
 395   0.0000       1.425981        38.8029 
 396   0.0000       1.435311        39.0568 
 397   0.0000       1.440140        39.1882 
 398   0.0000       1.442869        39.2625 
 399   0.0000       1.448957        39.4281 
 400   0.0000       1.455759        39.6132 
 401   0.0000       1.462208        39.7887 
 402   0.0000       1.465948        39.8905 
 403   0.0000       1.468777        39.9675 
 404   0.0000       1.471989        40.0549 
 405   0.0000       1.480695        40.2918 
 406   0.0000       1.489231        40.5240 
 407   0.0000       1.495662        40.6990 
 408   0.0000       1.498637        40.7800 
 409   0.0000       1.508710        41.0541 
 410   0.0000       1.512122        41.1469 
 411   0.0000       1.512562        41.1589 
 412   0.0000       1.514791        41.2195 
 413   0.0000       1.529248        41.6129 
 414   0.0000       1.530129        41.6369 
 415   0.0000       1.536448        41.8089 
 416   0.0000       1.540041        41.9066 
 417   0.0000       1.548355        42.1329 
 418   0.0000       1.555217        42.3196 
 419   0.0000       1.559787        42.4440 
 420   0.0000       1.566543        42.6278 
 421   0.0000       1.574463        42.8433 
 422   0.0000       1.578825        42.9620 
 423   0.0000       1.585309        43.1385 
 424   0.0000       1.597691        43.4754 
 425   0.0000       1.599427        43.5226 
 426   0.0000       1.608988        43.7828 
 427   0.0000       1.617894        44.0251 
 428   0.0000       1.625244        44.2251 
 429   0.0000       1.629128        44.3308 
 430   0.0000       1.630130        44.3581 
 431   0.0000       1.647898        44.8416 
 432   0.0000       1.651677        44.9444 
 433   0.0000       1.655599        45.0511 
 434   0.0000       1.665179        45.3118 
 435   0.0000       1.670949        45.4688 
 436   0.0000       1.686969        45.9048 
 437   0.0000       1.695288        46.1311 
 438   0.0000       1.706901        46.4471 
 439   0.0000       1.711538        46.5733 
 440   0.0000       1.723855        46.9085 
 441   0.0000       1.736374        47.2491 
 442   0.0000       1.745221        47.4899 
 443   0.0000       1.755323        47.7648 
 444   0.0000       1.761758        47.9399 
 445   0.0000       1.773121        48.2491 
 446   0.0000       1.782750        48.5111 
 447   0.0000       1.790310        48.7168 
 448   0.0000       1.794761        48.8379 
 449   0.0000       1.811015        49.2802 
 450   0.0000       1.816984        49.4427 
 451   0.0000       1.825222        49.6668 
 452   0.0000       1.828287        49.7502 
 453   0.0000       1.836485        49.9733 
 454   0.0000       1.848416        50.2980 
 455   0.0000       1.861592        50.6565 
 456   0.0000       1.869333        50.8671 
 457   0.0000       1.871092        50.9150 
 458   0.0000       1.875042        51.0225 
 459   0.0000       1.880992        51.1844 
 460   0.0000       1.891303        51.4650 
 461   0.0000       1.896806        51.6147 
 462   0.0000       1.907034        51.8930 
 463   0.0000       1.912729        52.0480 
 464   0.0000       1.915777        52.1309 
 465   0.0000       1.926491        52.4225 
 466   0.0000       1.929301        52.4989 
 467   0.0000       1.938217        52.7416 
 468   0.0000       1.946322        52.9621 
 469   0.0000       1.957323        53.2615 
 470   0.0000       1.964028        53.4439 
 471   0.0000       1.972221        53.6669 
 472   0.0000       1.977550        53.8119 
 473   0.0000       1.980794        53.9001 
 474   0.0000       1.986846        54.0648 
 475   0.0000       2.002786        54.4986 
 476   0.0000       2.007012        54.6136 
 477   0.0000       2.015819        54.8532 
 478   0.0000       2.022906        55.0461 
 479   0.0000       2.034397        55.3588 
 480   0.0000       2.044617        55.6369 
 481   0.0000       2.047642        55.7192 
 482   0.0000       2.048749        55.7493 
 483   0.0000       2.064777        56.1854 
 484   0.0000       2.069000        56.3004 
 485   0.0000       2.079750        56.5929 
 486   0.0000       2.093824        56.9758 
 487   0.0000       2.096192        57.0403 
 488   0.0000       2.110712        57.4354 
 489   0.0000       2.120144        57.6920 
 490   0.0000       2.134769        58.0900 
 491   0.0000       2.150211        58.5102 
 492   0.0000       2.161672        58.8221 
 493   0.0000       2.165737        58.9327 
 494   0.0000       2.169322        59.0302 
 495   0.0000       2.179165        59.2981 
 496   0.0000       2.184870        59.4533 
 497   0.0000       2.193298        59.6827 
 498   0.0000       2.206064        60.0301 
 499   0.0000       2.214171        60.2506 
 500   0.0000       2.228713        60.6464 
 501   0.0000       2.237329        60.8808 
 502   0.0000       2.242964        61.0342 
 503   0.0000       2.249429        61.2101 
 504   0.0000       2.254754        61.3550 
 505   0.0000       2.262461        61.5647 
 506   0.0000       2.269355        61.7523 
 507   0.0000       2.280468        62.0547 
 508   0.0000       2.289361        62.2967 
 509   0.0000       2.298649        62.5494 
 510   0.0000       2.309857        62.8544 
 511   0.0000       2.328017        63.3486 
 512   0.0000       2.331162        63.4341 
 513   0.0000       2.336161        63.5702 
 514   0.0000       2.341588        63.7178 
 515   0.0000       2.344984        63.8103 
 516   0.0000       2.356084        64.1123 
 517   0.0000       2.365193        64.3602 
 518   0.0000       2.369375        64.4740 
 519   0.0000       2.373684        64.5912 
 520   0.0000       2.384064        64.8737 
 521   0.0000       2.387597        64.9698 
 522   0.0000       2.396736        65.2185 
 523   0.0000       2.405293        65.4514 
 524   0.0000       2.407792        65.5193 
 525   0.0000       2.409295        65.5603 
 526   0.0000       2.418176        65.8019 
 527   0.0000       2.421542        65.8935 
 528   0.0000       2.424241        65.9669 
 529   0.0000       2.428741        66.0894 
 530   0.0000       2.434786        66.2539 
 531   0.0000       2.436260        66.2940 
 532   0.0000       2.438710        66.3607 
 533   0.0000       2.443912        66.5022 
 534   0.0000       2.446684        66.5777 
 535   0.0000       2.454845        66.7997 
 536   0.0000       2.460210        66.9457 
 537   0.0000       2.468841        67.1806 
 538   0.0000       2.469286        67.1927 
 539   0.0000       2.474927        67.3462 
 540   0.0000       2.478582        67.4456 
 541   0.0000       2.487626        67.6918 
 542   0.0000       2.489302        67.7373 
 543   0.0000       2.493093        67.8405 
 544   0.0000       2.500053        68.0299 
 545   0.0000       2.508082        68.2484 
 546   0.0000       2.511370        68.3378 
 547   0.0000       2.518648        68.5359 
 548   0.0000       2.523233        68.6607 
 549   0.0000       2.524545        68.6964 
 550   0.0000       2.532015        68.8996 
 551   0.0000       2.535837        69.0036 
 552   0.0000       2.544116        69.2289 
 553   0.0000       2.550609        69.4056 
 554   0.0000       2.559037        69.6349 
 555   0.0000       2.563443        69.7548 
 556   0.0000       2.567465        69.8643 
 557   0.0000       2.570674        69.9516 
 558   0.0000       2.575397        70.0801 
 559   0.0000       2.581123        70.2359 
 560   0.0000       2.590695        70.4964 
 561   0.0000       2.594603        70.6027 
 562   0.0000       2.598072        70.6971 
 563   0.0000       2.600867        70.7732 
 564   0.0000       2.611142        71.0528 
 565   0.0000       2.617699        71.2312 
 566   0.0000       2.621544        71.3358 
 567   0.0000       2.629345        71.5481 
 568   0.0000       2.636642        71.7467 
 569   0.0000       2.640424        71.8496 
 570   0.0000       2.650463        72.1228 
 571   0.0000       2.657912        72.3255 
 572   0.0000       2.661267        72.4167 
 573   0.0000       2.666241        72.5521 
 574   0.0000       2.670955        72.6804 
 575   0.0000       2.676741        72.8378 
 576   0.0000       2.681438        72.9656 
 577   0.0000       2.682186        72.9860 
 578   0.0000       2.691552        73.2408 
 579   0.0000       2.698320        73.4250 
 580   0.0000       2.707254        73.6681 
 581   0.0000       2.710659        73.7608 
 582   0.0000       2.719946        74.0135 
 583   0.0000       2.725893        74.1753 
 584   0.0000       2.735335        74.4322 
 585   0.0000       2.743379        74.6511 
 586   0.0000       2.746089        74.7249 
 587   0.0000       2.752469        74.8985 
 588   0.0000       2.759658        75.0941 
 589   0.0000       2.767071        75.2958 
 590   0.0000       2.774430        75.4961 
 591   0.0000       2.780538        75.6623 
 592   0.0000       2.785372        75.7938 
 593   0.0000       2.796847        76.1061 
 594   0.0000       2.801266        76.2263 
 595   0.0000       2.810373        76.4741 
 596   0.0000       2.816355        76.6369 
 597   0.0000       2.823853        76.8410 
 598   0.0000       2.830638        77.0256 
 599   0.0000       2.838608        77.2424 
 600   0.0000       2.842862        77.3582 
 601   0.0000       2.851873        77.6034 
 602   0.0000       2.854880        77.6852 
 603   0.0000       2.862276        77.8865 
 604   0.0000       2.876922        78.2850 
 605   0.0000       2.881435        78.4078 
 606   0.0000       2.893331        78.7315 
 607   0.0000       2.897597        78.8476 
 608   0.0000       2.902484        78.9806 
 609   0.0000       2.909475        79.1708 
 610   0.0000       2.911800        79.2341 
 611   0.0000       2.916243        79.3550 
 612   0.0000       2.919512        79.4440 
 613   0.0000       2.921940        79.5100 
 614   0.0000       2.930290        79.7372 
 615   0.0000       2.933113        79.8141 
 616   0.0000       2.937593        79.9360 
 617   0.0000       2.946486        80.1780 
 618   0.0000       2.947196        80.1973 
 619   0.0000       2.953079        80.3574 
 620   0.0000       2.959498        80.5320 
 621   0.0000       2.960576        80.5614 
 622   0.0000       2.963963        80.6535 
 623   0.0000       2.969769        80.8115 
 624   0.0000       2.975647        80.9715 
 625   0.0000       2.981939        81.1427 
 626   0.0000       2.985325        81.2348 
 627   0.0000       2.995182        81.5030 
 628   0.0000       3.003513        81.7297 
 629   0.0000       3.009497        81.8926 
 630   0.0000       3.018224        82.1301 
 631   0.0000       3.019712        82.1705 
 632   0.0000       3.026093        82.3442 
 633   0.0000       3.046255        82.8928 
 634   0.0000       3.051657        83.0398 
 635   0.0000       3.052800        83.0709 
 636   0.0000       3.059773        83.2607 
 637   0.0000       3.063449        83.3607 
 638   0.0000       3.067942        83.4830 
 639   0.0000       3.074931        83.6731 
 640   0.0000       3.078548        83.7716 
 641   0.0000       3.081816        83.8605 
 642   0.0000       3.083711        83.9120 
 643   0.0000       3.088783        84.0501 
 644   0.0000       3.096562        84.2617 
 645   0.0000       3.105984        84.5181 
 646   0.0000       3.106114        84.5217 
 647   0.0000       3.111128        84.6581 
 648   0.0000       3.115983        84.7902 
 649   0.0000       3.122726        84.9737 
 650   0.0000       3.130519        85.1858 
 651   0.0000       3.136820        85.3572 
 652   0.0000       3.140611        85.4604 
 653   0.0000       3.143648        85.5430 
 654   0.0000       3.157254        85.9133 
 655   0.0000       3.160619        86.0048 
 656   0.0000       3.166545        86.1661 
 657   0.0000       3.173062        86.3434 
 658   0.0000       3.176199        86.4288 
 659   0.0000       3.182346        86.5961 
 660   0.0000       3.190297        86.8124 
 661   0.0000       3.191131        86.8351 
 662   0.0000       3.195104        86.9432 
 663   0.0000       3.199768        87.0701 
 664   0.0000       3.208914        87.3190 
 665   0.0000       3.210847        87.3716 
 666   0.0000       3.220444        87.6327 
 667   0.0000       3.224852        87.7527 
 668   0.0000       3.228602        87.8547 
 669   0.0000       3.229415        87.8769 
 670   0.0000       3.234231        88.0079 
 671   0.0000       3.245588        88.3169 
 672   0.0000       3.254827        88.5683 
 673   0.0000       3.255929        88.5983 
 674   0.0000       3.261604        88.7528 
 675   0.0000       3.266029        88.8732 
 676   0.0000       3.270433        88.9930 
 677   0.0000       3.275082        89.1195 
 678   0.0000       3.283386        89.3455 
 679   0.0000       3.290787        89.5469 
 680   0.0000       3.293829        89.6296 
 681   0.0000       3.296722        89.7084 
 682   0.0000       3.300121        89.8009 
 683   0.0000       3.304278        89.9140 
 684   0.0000       3.308135        90.0189 
 685   0.0000       3.319951        90.3405 
 686   0.0000       3.326045        90.5063 
 687   0.0000       3.328105        90.5623 
 688   0.0000       3.333349        90.7050 
 689   0.0000       3.337926        90.8296 
 690   0.0000       3.353288        91.2476 
 691   0.0000       3.355234        91.3005 
 692   0.0000       3.360250        91.4370 
 693   0.0000       3.379866        91.9708 
 694   0.0000       3.380254        91.9814 
 695   0.0000       3.394994        92.3825 
 696   0.0000       3.407099        92.7119 
 697   0.0000       3.413969        92.8988 
 698   0.0000       3.426729        93.2460 
 699   0.0000       3.435453        93.4834 
 700   0.0000       3.449040        93.8532 
 701   0.0000       3.456133        94.0462 
 702   0.0000       3.460129        94.1549 
 703   0.0000       3.471773        94.4718 
 704   0.0000       3.494494        95.0900 
 705   0.0000       3.500977        95.2664 
 706   0.0000       3.505143        95.3798 
 707   0.0000       3.509234        95.4911 
 708   0.0000       3.520014        95.7845 
 709   0.0000       3.535562        96.2075 
 710   0.0000       3.540338        96.3375 
 711   0.0000       3.555215        96.7423 
 712   0.0000       3.564927        97.0066 
 713   0.0000       3.590570        97.7044 
 714   0.0000       3.600708        97.9802 
 715   0.0000       3.608349        98.1882 
 716   0.0000       3.622444        98.5717 
 717   0.0000       3.640145        99.0534 
 718   0.0000       3.644441        99.1703 
 719   0.0000       3.661954        99.6468 
 720   0.0000       3.683535       100.2341 
 721   0.0000       3.692682       100.4830 
 722   0.0000       3.704986       100.8178 
 723   0.0000       3.719411       101.2103 
 724   0.0000       3.724520       101.3493 
 725   0.0000       3.733104       101.5829 
 726   0.0000       3.741359       101.8076 
 727   0.0000       3.771957       102.6402 
 728   0.0000       3.772941       102.6670 
 729   0.0000       3.777244       102.7840 
 730   0.0000       3.786981       103.0490 
 731   0.0000       3.795692       103.2860 
 732   0.0000       3.809967       103.6745 
 733   0.0000       3.821664       103.9928 
 734   0.0000       3.835657       104.3735 
 735   0.0000       3.842297       104.5542 
 736   0.0000       3.856578       104.9428 
 737   0.0000       3.862756       105.1109 
 738   0.0000       3.879182       105.5579 
 739   0.0000       3.887543       105.7854 
 740   0.0000       3.889634       105.8423 
 741   0.0000       3.905095       106.2630 
 742   0.0000       3.922284       106.7308 
 743   0.0000       3.941762       107.2608 
 744   0.0000       3.949478       107.4708 
 745   0.0000       3.958602       107.7190 
 746   0.0000       3.965952       107.9191 
 747   0.0000       3.972760       108.1043 
 748   0.0000       3.976538       108.2071 
 749   0.0000       3.980282       108.3090 
 750   0.0000       3.981041       108.3296 
 751   0.0000       3.990771       108.5944 
 752   0.0000       3.996838       108.7595 
 753   0.0000       4.001623       108.8897 
 754   0.0000       4.009418       109.1018 
 755   0.0000       4.019371       109.3726 
 756   0.0000       4.025231       109.5321 
 757   0.0000       4.028870       109.6311 
 758   0.0000       4.033524       109.7578 
 759   0.0000       4.047831       110.1471 
 760   0.0000       4.057709       110.4159 
 761   0.0000       4.066845       110.6645 
 762   0.0000       4.070299       110.7585 
 763   0.0000       4.090979       111.3212 
 764   0.0000       4.093561       111.3915 
 765   0.0000       4.110630       111.8559 
 766   0.0000       4.123145       112.1965 
 767   0.0000       4.128986       112.3554 
 768   0.0000       4.144704       112.7831 
 769   0.0000       4.154027       113.0368 
 770   0.0000       4.155764       113.0841 
 771   0.0000       4.167976       113.4164 
 772   0.0000       4.173382       113.5635 
 773   0.0000       4.194035       114.1255 
 774   0.0000       4.218323       114.7864 
 775   0.0000       4.222627       114.9035 
 776   0.0000       4.234290       115.2209 
 777   0.0000       4.274097       116.3041 
 778   0.0000       4.304909       117.1425 
 779   0.0000       4.338558       118.0582 
 780   0.0000       4.351835       118.4194 
 781   0.0000       4.367368       118.8421 
 782   0.0000       4.371586       118.9569 
 783   0.0000       4.372405       118.9792 
 784   0.0000       4.389707       119.4500 
 785   0.0000       4.409921       120.0000 
 786   0.0000       4.422359       120.3385 
 787   0.0000       4.428214       120.4978 
 788   0.0000       4.442143       120.8769 
 789   0.0000       4.444624       120.9444 
 790   0.0000       4.479718       121.8993 
 791   0.0000       4.495716       122.3346 
 792   0.0000       4.502781       122.5269 
 793   0.0000       4.507703       122.6608 
 794   0.0000       4.520082       122.9977 
 795   0.0000       4.547604       123.7466 
 796   0.0000       4.560262       124.0910 
 797   0.0000       4.580356       124.6378 
 798   0.0000       4.581457       124.6678 
 799   0.0000       4.614998       125.5805 
 800   0.0000       4.631118       126.0191 
 801   0.0000       4.636603       126.1684 
 802   0.0000       4.648175       126.4833 
 803   0.0000       4.664800       126.9357 
 804   0.0000       4.675731       127.2331 
 805   0.0000       4.678008       127.2951 
 806   0.0000       4.685980       127.5120 
 807   0.0000       4.700205       127.8991 
 808   0.0000       4.722248       128.4989 
 809   0.0000       4.747232       129.1787 
 810   0.0000       4.758563       129.4871 
 811   0.0000       4.805226       130.7568 
[...]


-----------
IR SPECTRUM
-----------

 Mode    freq (cm**-1)   T**2         TX         TY         TZ
-------------------------------------------------------------------
   6:        17.19    0.112650  ( -0.267321   0.094391  -0.179666)
   7:        25.40    0.020496  ( -0.115991   0.076172   0.035208)
   8:        37.19    0.070331  ( -0.136707  -0.223602  -0.040556)
   9:        45.23    0.346866  (  0.473187  -0.328428  -0.122860)
  10:        60.13    0.186822  ( -0.162601  -0.394138  -0.070977)
  11:        66.96    0.355090  ( -0.387174   0.425904  -0.154244)
  12:        73.33    0.127327  ( -0.200967  -0.210307  -0.206665)
  13:       101.68    0.610102  ( -0.143388  -0.758650   0.118288)
  14:       124.60    1.739980  ( -0.719609  -0.959727   0.548695)
  15:       132.29    0.258419  ( -0.449333   0.047087   0.233028)
  16:       152.41    2.200897  (  0.853418  -0.809075  -0.904418)
  17:       165.62    0.019063  ( -0.014652   0.108467  -0.084163)
  18:       183.67    2.168289  (  0.730545  -1.185956   0.477599)
  19:       201.63    2.802457  ( -1.417829   0.875243  -0.161761)
  20:       216.41    0.598996  (  0.269058   0.442259   0.575335)
  21:       223.96    2.035447  ( -1.156743  -0.038448   0.834215)
  22:       244.42    0.081263  ( -0.075898   0.273584   0.025575)
  23:       270.82    2.490865  ( -0.014029  -0.420647   1.521093)
  24:       295.03    2.600033  ( -0.523072   1.524883   0.034055)
  25:       305.10    1.658960  ( -0.486320  -1.180834  -0.167580)
  26:       320.41   15.231995  (  3.632524   0.833136  -1.158728)
  27:       367.58    9.487790  ( -1.548543  -1.987275  -1.772158)
  28:       371.81   10.691569  ( -1.585210   2.858005  -0.102400)
  29:       383.47   10.784199  ( -3.206430   0.705205   0.075432)
  30:       404.48    2.527778  ( -0.604361   1.280909  -0.722356)
  31:       407.39    0.739570  ( -0.391870   0.577868  -0.502072)
  32:       446.17    4.970964  ( -1.585614  -1.518430  -0.388796)
  33:       476.24   16.935194  ( -2.394175   0.795461   3.251209)
  34:       534.90   11.324190  ( -1.623268  -2.932633  -0.298086)
  35:       537.01    0.358605  (  0.258610  -0.502672  -0.197600)
  36:       565.92    0.739122  ( -0.015984   0.817911  -0.264364)
  37:       573.41    5.358199  (  0.645859  -2.193672   0.358981)
  38:       579.70    1.708197  ( -0.516752  -1.147575   0.352472)
  39:       594.93   12.001110  (  3.407863   0.338830  -0.522277)
  40:       608.75    1.870179  (  1.193457   0.417171  -0.521352)
  41:       624.78   12.404215  ( -3.174100  -0.865074   1.257358)
  42:       648.80    5.233801  ( -1.728947  -1.011546   1.105133)
  43:       667.99    6.417163  ( -0.212612   2.513338   0.234717)
  44:       685.30   20.284770  ( -2.416435   1.492758   3.495323)
  45:       710.68    9.752914  (  1.030676  -2.947968  -0.010107)
  46:       730.38   31.921894  (  4.056365  -2.303950  -3.187415)
  47:       735.71   44.727368  (  0.820750  -6.633090   0.236339)
  48:       740.42    0.572500  ( -0.051073  -0.342358  -0.672817)
  49:       745.25   57.680098  ( -1.670190   7.355684  -0.885709)
  50:       766.92    8.099427  (  2.185285   1.715840   0.616321)
  51:       790.99   39.979902  (  4.168368  -0.725894  -4.698690)
  52:       809.86    1.190032  (  0.348131  -0.379496  -0.961676)
  53:       827.38    1.869919  ( -0.047239  -1.365591   0.053373)
  54:       830.26    0.223242  (  0.429844   0.190006   0.048719)
  55:       856.16   61.028999  (  6.116454   1.797127   4.515343)
  56:       880.33    0.326322  (  0.321800   0.351423  -0.315069)
  57:       881.07    0.040829  (  0.125531   0.114360   0.109511)
  58:       881.36    1.032419  ( -0.918243  -0.290726   0.323616)
  59:       894.65    6.805618  (  0.948098  -1.305903  -2.049718)
  60:       896.67    7.178713  ( -0.344567   2.453839  -1.019147)
  61:       899.47   11.181355  (  1.985952  -0.784408  -2.573335)
  62:       909.76    1.402509  (  0.035449   1.159685   0.237450)
  63:       912.64    0.607183  ( -0.688277  -0.155489  -0.330577)
  64:       946.51    0.038245  (  0.115801   0.094126   0.126395)
  65:       950.84    0.072053  (  0.174349   0.132483   0.155255)
  66:       974.44   65.081575  ( -7.329494  -1.990825   2.719690)
  67:       976.92    0.140495  ( -0.291819   0.135350  -0.192398)
  68:       978.30    1.031883  (  0.284366  -0.258062   0.940438)
  69:       996.02   13.171499  (  3.152690   0.642541   1.679043)
  70:      1017.76    7.162077  (  2.449334   0.586741   0.904751)
  71:      1025.95    7.041553  ( -2.020256  -1.391233  -1.012219)
  72:      1032.46    7.357771  (  0.472845  -0.459438  -2.631179)
  73:      1049.60  121.808213  (  8.963621   1.871401  -6.161134)
  74:      1072.14    9.086447  ( -0.327765   2.598505  -1.492242)
  75:      1080.05    6.350024  ( -0.901152  -0.462262   2.307436)
  76:      1084.43   23.769795  (  3.930324   0.610511   2.819508)
  77:      1099.14   31.552333  ( -1.137348  -5.496811  -0.209388)
  78:      1135.87   90.842969  (  8.176549   2.662968   4.110427)
  79:      1143.43   26.300496  ( -3.842074  -1.639679  -2.974965)
  80:      1155.66    0.606167  (  0.431882  -0.024716  -0.647328)
  81:      1158.82    0.139714  ( -0.350935  -0.056339  -0.115693)
  82:      1166.31   41.421615  (  5.923747   1.075185   2.274822)
  83:      1179.05    1.199410  (  0.705648   0.828320   0.123925)
  84:      1184.57   35.306760  (  0.710425   1.267203   5.761619)
  85:      1200.40   47.255843  ( -6.304607  -2.609626  -0.835238)
  86:      1249.57   22.513878  (  4.319828   1.044926  -1.661653)
  87:      1267.71  108.632273  (  7.400480   1.327151  -7.218298)
  88:      1278.41    2.645558  (  0.834173  -0.368633  -1.346782)
  89:      1281.16   50.043110  ( -2.248208   0.237925   6.703138)
  90:      1294.52    0.600128  (  0.550078  -0.052662  -0.542927)
  91:      1298.20    0.206117  ( -0.412109  -0.140899   0.128183)
  92:      1315.69   30.566149  ( -1.056172   0.670750   5.385234)
  93:      1343.40    5.261334  (  1.176424   1.249574  -1.521817)
  94:      1348.84    7.371539  ( -2.190127   0.290454   1.578138)
  95:      1358.72    0.648043  ( -0.592377  -0.483993  -0.250765)
  96:      1380.20   17.694484  ( -1.547580  -0.530052   3.875374)
  97:      1384.41   90.635512  ( -1.053110   0.402225   9.453290)
  98:      1430.16   71.799243  ( -7.907082  -3.029615   0.314216)
  99:      1438.69    4.410194  (  1.169494   1.738739   0.138794)
 100:      1445.39    9.790195  (  2.930404  -0.919525  -0.597832)
 101:      1447.82    7.198022  (  1.800990  -0.862052   1.792016)
 102:      1452.75   23.075314  ( -1.975134  -2.012415  -3.889003)
 103:      1456.11    6.745107  (  1.485730   1.003772   1.878871)
 104:      1462.56   20.803487  (  0.769365  -0.066693  -4.495233)
 105:      1473.05   47.545047  (  6.082145   1.915154   2.623880)
 106:      1489.72  191.413939  (  7.737340   0.924446 -11.432100)
 107:      1567.25    9.544780  (  2.666096   1.067328   1.139088)
 108:      1574.36  373.909924  (-14.403450  -3.959740  12.278885)
 109:      1579.49   15.577401  (  0.835926   0.578653  -3.813632)
 110:      1597.18   19.511759  (  4.014372  -1.057084  -1.509685)
 111:      1608.22   44.097426  (  4.222718   2.413504  -4.521181)
 112:      2879.26   12.677197  (  2.224315  -1.596936   2.275833)
 113:      2948.26   11.419661  (  1.182797  -1.081424  -2.975092)
 114:      2966.71   25.540795  ( -1.043367  -4.873243  -0.838856)
 115:      2984.42    3.041557  (  0.942964   0.533944   1.366484)
 116:      3001.27   11.365639  ( -3.224003   0.203626   0.964354)
 117:      3037.65   26.878264  ( -4.833860   1.589090  -0.993406)
 118:      3044.99   12.599572  (  1.477622   0.165326  -3.223177)
 119:      3103.10    0.150209  ( -0.007027  -0.223750  -0.316379)
 120:      3114.73    1.432146  (  1.102470   0.146018   0.442024)
 121:      3119.74    0.834040  ( -0.513180   0.617683  -0.434918)
 122:      3120.06    1.173910  (  0.848584   0.155723  -0.655413)
 123:      3126.94    2.283357  ( -1.008732  -1.073225  -0.337648)
 124:      3128.65    0.634990  ( -0.693597  -0.247088   0.304730)
 125:      3133.63    1.207793  ( -0.857753  -0.078938  -0.682511)
 126:      3136.17    0.666046  ( -0.071351  -0.079838  -0.809062)
 127:      3139.25    0.471266  ( -0.652160  -0.075620  -0.200586)
 128:      3143.69    0.246111  (  0.313490   0.239327   0.300927)
 129:      3154.80    0.068929  (  0.243564  -0.066376   0.072110)
 130:      3172.90    0.201080  (  0.015580   0.053702   0.444919)
 131:      3189.37    0.910472  (  0.909185   0.173833  -0.231596)

The first frequency considered to be a vibration is 6
The total number of vibrations considered is 126


--------------------------
THERMOCHEMISTRY AT 298.15K
--------------------------

Temperature         ... 298.15 K
Pressure            ... 1.00 atm
Total Mass          ... 356.39 AMU

Throughout the following assumptions are being made:
  (1) The electronic state is orbitally nondegenerate
      but the spin degeneracy is treated
  (2) There are no thermally accessible electronically excited states
  (3) Hindered rotations indicated by low frequency modes are not
      treated as such but are treated as vibrations and this may
      cause some error
  (4) All equations used are the standard statistical mechanics
      equations for an ideal gas
  (5) All vibrations are strictly harmonic

freq.      17.19  E(vib)   ...       0.57 
freq.      25.40  E(vib)   ...       0.56 
freq.      37.19  E(vib)   ...       0.54 
freq.      45.23  E(vib)   ...       0.53 
freq.      60.13  E(vib)   ...       0.51 
freq.      66.96  E(vib)   ...       0.50 
freq.      73.33  E(vib)   ...       0.49 
freq.     101.68  E(vib)   ...       0.46 
freq.     124.60  E(vib)   ...       0.43 
freq.     132.29  E(vib)   ...       0.42 
freq.     152.41  E(vib)   ...       0.40 
freq.     165.62  E(vib)   ...       0.39 
freq.     183.67  E(vib)   ...       0.37 
freq.     201.63  E(vib)   ...       0.35 
freq.     216.41  E(vib)   ...       0.34 
freq.     223.96  E(vib)   ...       0.33 
freq.     244.42  E(vib)   ...       0.31 
freq.     270.82  E(vib)   ...       0.29 
freq.     295.03  E(vib)   ...       0.27 
freq.     305.10  E(vib)   ...       0.26 
freq.     320.41  E(vib)   ...       0.25 
freq.     367.58  E(vib)   ...       0.21 
freq.     371.81  E(vib)   ...       0.21 
freq.     383.47  E(vib)   ...       0.20 
freq.     404.48  E(vib)   ...       0.19 
freq.     407.39  E(vib)   ...       0.19 
freq.     446.17  E(vib)   ...       0.17 
freq.     476.24  E(vib)   ...       0.15 
freq.     534.90  E(vib)   ...       0.13 
freq.     537.01  E(vib)   ...       0.12 
freq.     565.92  E(vib)   ...       0.11 
freq.     573.41  E(vib)   ...       0.11 
freq.     579.70  E(vib)   ...       0.11 
freq.     594.93  E(vib)   ...       0.10 
freq.     608.75  E(vib)   ...       0.10 
freq.     624.78  E(vib)   ...       0.09 
freq.     648.80  E(vib)   ...       0.08 
freq.     667.99  E(vib)   ...       0.08 
freq.     685.30  E(vib)   ...       0.07 
freq.     710.68  E(vib)   ...       0.07 
freq.     730.38  E(vib)   ...       0.06 
freq.     735.71  E(vib)   ...       0.06 
freq.     740.42  E(vib)   ...       0.06 
freq.     745.25  E(vib)   ...       0.06 
freq.     766.92  E(vib)   ...       0.06 
freq.     790.99  E(vib)   ...       0.05 
freq.     809.86  E(vib)   ...       0.05 
freq.     827.38  E(vib)   ...       0.04 
freq.     830.26  E(vib)   ...       0.04 
freq.     856.16  E(vib)   ...       0.04 
freq.     880.33  E(vib)   ...       0.04 
freq.     881.07  E(vib)   ...       0.04 
freq.     881.36  E(vib)   ...       0.04 
freq.     894.65  E(vib)   ...       0.03 
freq.     896.67  E(vib)   ...       0.03 
freq.     899.47  E(vib)   ...       0.03 
freq.     909.76  E(vib)   ...       0.03 
freq.     912.64  E(vib)   ...       0.03 
freq.     946.51  E(vib)   ...       0.03 
freq.     950.84  E(vib)   ...       0.03 
freq.     974.44  E(vib)   ...       0.03 
freq.     976.92  E(vib)   ...       0.03 
freq.     978.30  E(vib)   ...       0.03 
freq.     996.02  E(vib)   ...       0.02 
freq.    1017.76  E(vib)   ...       0.02 
freq.    1025.95  E(vib)   ...       0.02 
freq.    1032.46  E(vib)   ...       0.02 
freq.    1049.60  E(vib)   ...       0.02 
freq.    1072.14  E(vib)   ...       0.02 
freq.    1080.05  E(vib)   ...       0.02 
freq.    1084.43  E(vib)   ...       0.02 
freq.    1099.14  E(vib)   ...       0.02 
freq.    1135.87  E(vib)   ...       0.01 
freq.    1143.43  E(vib)   ...       0.01 
freq.    1155.66  E(vib)   ...       0.01 
freq.    1158.82  E(vib)   ...       0.01 
freq.    1166.31  E(vib)   ...       0.01 
freq.    1179.05  E(vib)   ...       0.01 
freq.    1184.57  E(vib)   ...       0.01 
freq.    1200.40  E(vib)   ...       0.01 
freq.    1249.57  E(vib)   ...       0.01 
freq.    1267.71  E(vib)   ...       0.01 
freq.    1278.41  E(vib)   ...       0.01 
freq.    1281.16  E(vib)   ...       0.01 
freq.    1294.52  E(vib)   ...       0.01 
freq.    1298.20  E(vib)   ...       0.01 
freq.    1315.69  E(vib)   ...       0.01 
freq.    1343.40  E(vib)   ...       0.01 
freq.    1348.84  E(vib)   ...       0.01 
freq.    1358.72  E(vib)   ...       0.01 
freq.    1380.20  E(vib)   ...       0.01 
freq.    1384.41  E(vib)   ...       0.00 
freq.    1430.16  E(vib)   ...       0.00 
freq.    1438.69  E(vib)   ...       0.00 
freq.    1445.39  E(vib)   ...       0.00 
freq.    1447.82  E(vib)   ...       0.00 
freq.    1452.75  E(vib)   ...       0.00 
freq.    1456.11  E(vib)   ...       0.00 
freq.    1462.56  E(vib)   ...       0.00 
freq.    1473.05  E(vib)   ...       0.00 
freq.    1489.72  E(vib)   ...       0.00 
freq.    1567.25  E(vib)   ...       0.00 
freq.    1574.36  E(vib)   ...       0.00 
freq.    1579.49  E(vib)   ...       0.00 
freq.    1597.18  E(vib)   ...       0.00 
freq.    1608.22  E(vib)   ...       0.00 
freq.    2879.26  E(vib)   ...       0.00 
freq.    2948.26  E(vib)   ...       0.00 
freq.    2966.71  E(vib)   ...       0.00 
freq.    2984.42  E(vib)   ...       0.00 
freq.    3001.27  E(vib)   ...       0.00 
freq.    3037.65  E(vib)   ...       0.00 
freq.    3044.99  E(vib)   ...       0.00 
freq.    3103.10  E(vib)   ...       0.00 
freq.    3114.73  E(vib)   ...       0.00 
freq.    3119.74  E(vib)   ...       0.00 
freq.    3120.06  E(vib)   ...       0.00 
freq.    3126.94  E(vib)   ...       0.00 
freq.    3128.65  E(vib)   ...       0.00 
freq.    3133.63  E(vib)   ...       0.00 
freq.    3136.17  E(vib)   ...       0.00 
freq.    3139.25  E(vib)   ...       0.00 
freq.    3143.69  E(vib)   ...       0.00 
freq.    3154.80  E(vib)   ...       0.00 
freq.    3172.90  E(vib)   ...       0.00 
freq.    3189.37  E(vib)   ...       0.00 

------------
INNER ENERGY
------------

The inner energy is: U= E(el) + E(ZPE) + E(vib) + E(rot) + E(trans)
    E(el)   - is the total energy from the electronic structure calculation
              = E(kin-el) + E(nuc-el) + E(el-el) + E(nuc-nuc)
    E(ZPE)  - the the zero temperature vibrational energy from the frequency calculation
    E(vib)  - the the finite temperature correction to E(ZPE) due to population
              of excited vibrational states
    E(rot)  - is the rotational thermal energy
    E(trans)- is the translational thermal energy

Summary of contributions to the inner energy U:
Electronic energy                ...  -2003.80942878 Eh
Zero point energy                ...      0.34290945 Eh     215.18 kcal/mol
Thermal vibrational correction   ...      0.01976613 Eh      12.40 kcal/mol
Thermal rotational correction    ...      0.00141627 Eh       0.89 kcal/mol
Thermal translational correction ...      0.00141627 Eh       0.89 kcal/mol
-----------------------------------------------------------------------
Total thermal energy                  -2003.44392065 Eh


Summary of corrections to the electronic energy:
(perhaps to be used in another calculation)
Total thermal correction                  0.02259867 Eh      14.18 kcal/mol
Non-thermal (ZPE) correction              0.34290945 Eh     215.18 kcal/mol
-----------------------------------------------------------------------
Total correction                          0.36550813 Eh     229.36 kcal/mol


--------
ENTHALPY
--------

The enthalpy is H = U + kB*T
                kB is Boltzmann's constant
Total free energy                 ...  -2003.44392065 Eh 
Thermal Enthalpy correction       ...      0.00094421 Eh       0.59 kcal/mol
-----------------------------------------------------------------------
Total Enthalpy                    ...  -2003.44297644 Eh


Note: Only C1 symmetry has been detected, increase convergence thresholds 
      if your molecule has a higher symmetry. Symmetry factor of 1.0 is   
      used for the rotational entropy correction. 
 

Note: Rotational entropy computed according to Herzberg 
Infrared and Raman Spectra, Chapter V,1, Van Nostrand Reinhold, 1945 
Point Group:  C1, Symmetry Number:   1  
Rotational constants in cm-1:     0.010379     0.005985     0.004840 

Vibrational entropy computed according to the QRRHO of S. Grimme
Chem.Eur.J. 2012 18 9955


-------
ENTROPY
-------

The entropy contributions are T*S = T*(S(el)+S(vib)+S(rot)+S(trans))
     S(el)   - electronic entropy
     S(vib)  - vibrational entropy
     S(rot)  - rotational entropy
     S(trans)- translational entropy
The entropies will be listed as mutliplied by the temperature to get
units of energy

Electronic entropy                ...      0.00130891 Eh      0.82 kcal/mol
Vibrational entropy               ...      0.03509975 Eh     22.03 kcal/mol
Rotational entropy                ...      0.01660031 Eh     10.42 kcal/mol
Translational entropy             ...      0.02067113 Eh     12.97 kcal/mol
-----------------------------------------------------------------------
Final entropy term                ...      0.07368011 Eh     46.23 kcal/mol

In case the symmetry of your molecule has not been determined correctly
or in case you have a reason to use a different symmetry number we print 
out the resulting rotational entropy values for sn=1,12 :
 --------------------------------------------------------
|  sn= 1 | S(rot)=       0.01660031 Eh     10.42 kcal/mol|
|  sn= 2 | S(rot)=       0.01594586 Eh     10.01 kcal/mol|
|  sn= 3 | S(rot)=       0.01556302 Eh      9.77 kcal/mol|
|  sn= 4 | S(rot)=       0.01529140 Eh      9.60 kcal/mol|
|  sn= 5 | S(rot)=       0.01508071 Eh      9.46 kcal/mol|
|  sn= 6 | S(rot)=       0.01490857 Eh      9.36 kcal/mol|
|  sn= 7 | S(rot)=       0.01476302 Eh      9.26 kcal/mol|
|  sn= 8 | S(rot)=       0.01463694 Eh      9.18 kcal/mol|
|  sn= 9 | S(rot)=       0.01452573 Eh      9.12 kcal/mol|
|  sn=10 | S(rot)=       0.01442625 Eh      9.05 kcal/mol|
|  sn=11 | S(rot)=       0.01433626 Eh      9.00 kcal/mol|
|  sn=12 | S(rot)=       0.01425411 Eh      8.94 kcal/mol|
 --------------------------------------------------------


-------------------
GIBBS FREE ENERGY
-------------------

The Gibbs free energy is G = H - T*S

Total enthalpy                    ...  -2003.44297644 Eh 
Total entropy correction          ...     -0.07368011 Eh    -46.23 kcal/mol
-----------------------------------------------------------------------
Final Gibbs free energy         ...  -2003.51665655 Eh

For completeness - the Gibbs free energy minus the electronic energy
G-E(el)                           ...      0.29277223 Eh    183.72 kcal/mol


Timings for individual modules:

Sum of individual times         ...    47080.348 sec (= 784.672 min)
GTO integral calculation        ...        0.639 sec (=   0.011 min)   0.0 %
SCF iterations                  ...       97.738 sec (=   1.629 min)   0.2 %
Analytical frequency calculation...    46981.970 sec (= 783.033 min)  99.8 %
                             ****ORCA TERMINATED NORMALLY****
TOTAL RUN TIME: 0 days 13 hours 4 minutes 41 seconds 460 msec
