
                                 *****************
                                 * O   R   C   A *
                                 *****************

           --- An Ab Initio, DFT and Semiempirical electronic structure package ---

                  #######################################################
                  #                        -***-                        #
                  #          Department of theory and spectroscopy      #
                  #               Directorship: Frank Neese             #
                  #        Max Planck Institute fuer Kohlenforschung    #
                  #                Kaiser Wilhelm Platz 1               #
                  #                 D-45470 Muelheim/Ruhr               #
                  #                      Germany                        #
                  #                                                     #
                  #                  All rights reserved                #
                  #                        -***-                        #
                  #######################################################


                         Program Version 4.2.1 -  RELEASE  -


 With contributions from (in alphabetic order):
   Daniel Aravena         : Magnetic Suceptibility
   Michael Atanasov       : Ab Initio Ligand Field Theory (pilot matlab implementation)
   Alexander A. Auer      : GIAO ZORA, VPT2
   Ute Becker             : Parallelization
   Giovanni Bistoni       : ED, misc. LED, open-shell LED, HFLD
   Martin Brehm           : Molecular dynamics
   Dmytro Bykov           : SCF Hessian
   Vijay G. Chilkuri      : MRCI spin determinant printing, contributions to CSF-ICE
   Dipayan Datta          : RHF DLPNO-CCSD density
   Achintya Kumar Dutta   : EOM-CC, STEOM-CC
   Dmitry Ganyushin       : Spin-Orbit,Spin-Spin,Magnetic field MRCI
   Miquel Garcia          : C-PCM Hessian, Gaussian charge scheme
   Yang Guo               : DLPNO-NEVPT2, CIM, IAO-localization
   Andreas Hansen         : Spin unrestricted coupled pair/coupled cluster methods
   Benjamin Helmich-Paris : CASSCF linear response (MC-RPA)
   Lee Huntington         : MR-EOM, pCC
   Robert Izsak           : Overlap fitted RIJCOSX, COSX-SCS-MP3, EOM
   Christian Kollmar      : KDIIS, OOCD, Brueckner-CCSD(T), CCSD density
   Simone Kossmann        : Meta GGA functionals, TD-DFT gradient, OOMP2, MP2 Hessian
   Martin Krupicka        : AUTO-CI
   Lucas Lang             : DCDCAS
   Dagmar Lenk            : GEPOL surface, SMD
   Dimitrios Liakos       : Extrapolation schemes; Compound Job, initial MDCI parallelization
   Dimitrios Manganas     : Further ROCIS development; embedding schemes
   Dimitrios Pantazis     : SARC Basis sets
   Taras Petrenko         : DFT Hessian,TD-DFT gradient, ASA, ECA, R-Raman, ABS, FL, XAS/XES, NRVS
   Peter Pinski           : DLPNO-MP2, DLPNO-MP2 Gradient
   Christoph Reimann      : Effective Core Potentials
   Marius Retegan         : Local ZFS, SOC
   Christoph Riplinger    : Optimizer, TS searches, QM/MM, DLPNO-CCSD(T), (RO)-DLPNO pert. Triples
   Tobias Risthaus        : Range-separated hybrids, TD-DFT gradient, RPA, STAB
   Michael Roemelt        : Original ROCIS implementation
   Masaaki Saitow         : Open-shell DLPNO-CCSD energy and density
   Barbara Sandhoefer     : DKH picture change effects
   Avijit Sen             : IP-ROCIS
   Kantharuban Sivalingam : CASSCF convergence, NEVPT2, FIC-MRCI
   Bernardo de Souza      : ESD, SOC TD-DFT
   Georgi Stoychev        : AutoAux, RI-MP2 NMR
   Willem Van den Heuvel  : Paramagnetic NMR
   Boris Wezisla          : Elementary symmetry handling
   Frank Wennmohs         : Technical directorship


 We gratefully acknowledge several colleagues who have allowed us to
 interface, adapt or use parts of their codes:
   Stefan Grimme, W. Hujo, H. Kruse,             : VdW corrections, initial TS optimization,
                  C. Bannwarth                     DFT functionals, gCP, sTDA/sTD-DF
   Ed Valeev, F. Pavosevic, A. Kumar             : LibInt (2-el integral package), F12 methods
   Garnet Chan, S. Sharma, J. Yang, R. Olivares  : DMRG
   Ulf Ekstrom                                   : XCFun DFT Library
   Mihaly Kallay                                 : mrcc  (arbitrary order and MRCC methods)
   Andreas Klamt, Michael Diedenhofen            : otool_cosmo (COSMO solvation model)
   Jiri Pittner, Ondrej Demel                    : Mk-CCSD
   Frank Weinhold                                : gennbo (NPA and NBO analysis)
   Christopher J. Cramer and Donald G. Truhlar   : smd solvation model
   Lars Goerigk                                  : TD-DFT with DH, B97 family of functionals
   V. Asgeirsson, H. Jonsson                     : NEB implementation
   FAccTs GmbH                                   : IRC, NEB, NEB-TS, Multilevel, MM, QM/MM, CI optimization
   S Lehtola, MJT Oliveira, MAL Marques          : LibXC Library


 Your calculation uses the libint2 library for the computation of 2-el integrals
 For citations please refer to: http://libint.valeyev.net

 Your ORCA version has been built with support for libXC version: 4.2.3
 For citations please refer to: https://tddft.org/programs/libxc/

 This ORCA versions uses:
   CBLAS   interface :  Fast vector & matrix operations
   LAPACKE interface :  Fast linear algebra routines
   SCALAPACK package :  Parallel linear algebra routines


Your calculation utilizes the atom-pairwise dispersion correction
with the Becke-Johnson damping scheme (D3BJ)
Cite in your paper:
S.Grimme, S.Ehrlich, L.Goerigk, J Comput Chem, (2011), 32, 1456–1465 
S.Grimme, J.Antony, S.Ehrlich and H.Krieg, J.Chem.Phys., 132, (2010), 154104 
   

Your calculation utilizes the SMD solvation module
Please cite in your paper:
A.V. Marenich, C.J. Cramer, D.G. Truhlar J. Phys. Chem. B, 113, (2009), 6378 

----- Orbital basis set information -----
Your calculation utilizes the basis: def2-TZVP
   F. Weigend and R. Ahlrichs, Phys. Chem. Chem. Phys. 7, 3297 (2005).

----- AuxJ basis set information -----
Your calculation utilizes the auxiliary basis: def2/J
   F. Weigend, Phys. Chem. Chem. Phys. 8, 1057 (2006).

================================================================================
                                        WARNINGS
                       Please study these warnings very carefully!
================================================================================


WARNING: your system is open-shell and RHF/RKS was chosen
  ===> : WILL SWITCH to UHF/UKS


INFO   : the flag for use of LIBINT has been found!

================================================================================
                                       INPUT FILE
================================================================================
NAME = IM1_2F-1_Solv-1.inp
|  1> #
|  2> # ORCA calc attempt 1 :-)
|  3> #
|  4> ! BP86 D3BJ RIJCOSX def2-TZVP def2/J Grid6 FinalGrid6 MORead CPCM TightSCF 
|  5> %moinp "IM1_2F-1_Tight.ges"
|  6> %cpcm
|  7> smd true
|  8> SMDsolvent "Toluene"
|  9> end
| 10> * xyz 1 4
| 11>   Cr  0.33635983472405     -2.02176541705681     -1.33396407319528
| 12>   O   -1.50173695506261     -2.07216026842456     -0.34992253832519
| 13>   N   0.47430263220878     -0.45278933123217     -0.14142495627620
| 14>   N   2.24603596299312     -1.62487024304410     -1.61741337087192
| 15>   C   -2.59094859824813     -2.89533710761570     -0.74550676416799
| 16>   C   -2.70830764269911     -4.14320085454259     -0.14547646742878
| 17>   C   -3.45418718247453     -2.45200142923842     -1.74254152152185
| 18>   C   -3.72606242381215     -4.99610894066112     -0.58418864677821
| 19>   H   -2.02886992522242     -4.43068734175448      0.65704455651104
| 20>   C   -4.46907847002685     -3.31366714210964     -2.16549248371499
| 21>   H   -3.33696330599666     -1.45615990766070     -2.16823235230793
| 22>   C   -4.60008239571033     -4.58331746672599     -1.59314944797368
| 23>   H   -3.83747054987622     -5.97997377208511     -0.12887390814015
| 24>   H   -5.39241938651055     -5.25093699519338     -1.93099549127423
| 25>   H   -5.15782883397625     -2.98998490567525     -2.94569784482181
| 26>   C   -1.76743340234835     -0.92091145068577      0.43723946739613
| 27>   C   -0.66869048568930     -0.05216682064652      0.55601672258805
| 28>   C   -0.81965062683894      1.10183976231287      1.33761837178457
| 29>   C   -2.97957720946295     -0.69073999311843      1.06397222724978
| 30>   C   -3.10773932775664      0.46673751508400      1.84081008655543
| 31>   H   -3.80587217970097     -1.39112368629150      0.95322952054367
| 32>   C   -2.03533931116487      1.35365980552307      1.97319879630203
| 33>   H   0.00637796765931      1.80478525806138      1.44186334232090
| 34>   H   -4.05323451144389      0.67076658144570      2.34168236444311
| 35>   H   -2.14706267110751      2.25439780766911      2.57582586385026
| 36>   C   1.67819733203258      0.12059205839230     -0.11728034092266
| 37>   C   2.65673698957827     -0.48104986297914     -0.91358272741262
| 38>   C   3.31468415923717     -2.04979815236881     -2.33283505275113
| 39>   C   4.42712756568596     -1.21116934930578     -2.10377155234328
| 40>   H   3.25449957086479     -2.92002100425585     -2.98221659836989
| 41>   C   4.01604980340038     -0.21990706472572     -1.20748965922343
| 42>   H   4.61408439634042      0.59277502744830     -0.80578689598285
| 43>   H   5.41108703211857     -1.32718782239555     -2.54677179917943
| 44>   H   1.88351582178475      1.00119565460029      0.49605836284001
| 45>   C   -0.34107142268750     -1.06284178617407     -2.98239651773086
| 46>   H   0.42717404586188     -1.09516998376861     -3.76502348404421
| 47>   H   -0.54449635074618     -0.01978789501534     -2.70162725522902
| 48>   H   -1.26445086923020     -1.54892377663286     -3.32803608269079
| 49>   C   0.61029117451763     -4.37433234540221     -1.62245866198275
| 50>   C   -0.03070280280890     -4.04971610418394     -2.77085543776407
| 51>   H   1.69688992262005     -4.46514566076679     -1.57351920274594
| 52>   H   0.04961154324442     -4.69745306811383     -0.74057301983485
| 53>   H   0.51280192031145     -3.82939901685283     -3.69054321961393
| 54>   H   -1.12049083458148     -4.06614350383331     -2.83515230776500
| 55> *
| 56> 
| 57>                          ****END OF INPUT****
================================================================================

                       ****************************
                       * Single Point Calculation *
                       ****************************

---------------------------------
CARTESIAN COORDINATES (ANGSTROEM)
---------------------------------
  Cr     0.336360   -2.021765   -1.333964
  O     -1.501737   -2.072160   -0.349923
  N      0.474303   -0.452789   -0.141425
  N      2.246036   -1.624870   -1.617413
  C     -2.590949   -2.895337   -0.745507
  C     -2.708308   -4.143201   -0.145476
  C     -3.454187   -2.452001   -1.742542
  C     -3.726062   -4.996109   -0.584189
  H     -2.028870   -4.430687    0.657045
  C     -4.469078   -3.313667   -2.165492
  H     -3.336963   -1.456160   -2.168232
  C     -4.600082   -4.583317   -1.593149
  H     -3.837471   -5.979974   -0.128874
  H     -5.392419   -5.250937   -1.930995
  H     -5.157829   -2.989985   -2.945698
  C     -1.767433   -0.920911    0.437239
  C     -0.668690   -0.052167    0.556017
  C     -0.819651    1.101840    1.337618
  C     -2.979577   -0.690740    1.063972
  C     -3.107739    0.466738    1.840810
  H     -3.805872   -1.391124    0.953230
  C     -2.035339    1.353660    1.973199
  H      0.006378    1.804785    1.441863
  H     -4.053235    0.670767    2.341682
  H     -2.147063    2.254398    2.575826
  C      1.678197    0.120592   -0.117280
  C      2.656737   -0.481050   -0.913583
  C      3.314684   -2.049798   -2.332835
  C      4.427128   -1.211169   -2.103772
  H      3.254500   -2.920021   -2.982217
  C      4.016050   -0.219907   -1.207490
  H      4.614084    0.592775   -0.805787
  H      5.411087   -1.327188   -2.546772
  H      1.883516    1.001196    0.496058
  C     -0.341071   -1.062842   -2.982397
  H      0.427174   -1.095170   -3.765023
  H     -0.544496   -0.019788   -2.701627
  H     -1.264451   -1.548924   -3.328036
  C      0.610291   -4.374332   -1.622459
  C     -0.030703   -4.049716   -2.770855
  H      1.696890   -4.465146   -1.573519
  H      0.049612   -4.697453   -0.740573
  H      0.512802   -3.829399   -3.690543
  H     -1.120491   -4.066144   -2.835152

----------------------------
CARTESIAN COORDINATES (A.U.)
----------------------------
  NO LB      ZA    FRAG     MASS         X           Y           Z
   0 Cr   24.0000    0    52.000    0.635628   -3.820583   -2.520827
   1 O     8.0000    0    15.999   -2.837872   -3.915815   -0.661258
   2 N     7.0000    0    14.007    0.896302   -0.855648   -0.267254
   3 N     7.0000    0    14.007    4.244393   -3.070560   -3.056468
   4 C     6.0000    0    12.011   -4.896183   -5.471394   -1.408804
   5 C     6.0000    0    12.011   -5.117960   -7.829515   -0.274911
   6 C     6.0000    0    12.011   -6.527468   -4.633611   -3.292926
   7 C     6.0000    0    12.011   -7.041238   -9.441278   -1.103957
   8 H     1.0000    0     1.008   -3.834009   -8.372786    1.241634
   9 C     6.0000    0    12.011   -8.445334   -6.261923   -4.092188
  10 H     1.0000    0     1.008   -6.305947   -2.751743   -4.097365
  11 C     6.0000    0    12.011   -8.692896   -8.661215   -3.010616
  12 H     1.0000    0     1.008   -7.251768  -11.300513   -0.243536
  13 H     1.0000    0     1.008  -10.190196   -9.922833   -3.649053
  14 H     1.0000    0     1.008   -9.746884   -5.650253   -5.566562
  15 C     6.0000    0    12.011   -3.339965   -1.740270    0.826263
  16 C     6.0000    0    12.011   -1.263642   -0.098581    1.050719
  17 C     6.0000    0    12.011   -1.548915    2.082175    2.527732
  18 C     6.0000    0    12.011   -5.630585   -1.305309    2.010616
  19 C     6.0000    0    12.011   -5.872776    0.882006    3.478627
  20 H     1.0000    0     1.008   -7.192056   -2.628843    1.801343
  21 C     6.0000    0    12.011   -3.846234    2.558046    3.728805
  22 H     1.0000    0     1.008    0.012053    3.410550    2.724727
  23 H     1.0000    0     1.008   -7.659503    1.267565    4.425138
  24 H     1.0000    0     1.008   -4.057360    4.260194    4.867605
  25 C     6.0000    0    12.011    3.171333    0.227886   -0.221628
  26 C     6.0000    0    12.011    5.020505   -0.909052   -1.726421
  27 C     6.0000    0    12.011    6.263845   -3.873557   -4.408419
  28 C     6.0000    0    12.011    8.366059   -2.288778   -3.975552
  29 H     1.0000    0     1.008    6.150113   -5.518040   -5.635573
  30 C     6.0000    0    12.011    7.589234   -0.415564   -2.281825
  31 H     1.0000    0     1.008    8.719356    1.120182   -1.522717
  32 H     1.0000    0     1.008   10.225473   -2.508022   -4.812701
  33 H     1.0000    0     1.008    3.559329    1.891986    0.937414
  34 C     6.0000    0    12.011   -0.644532   -2.008480   -5.635913
  35 H     1.0000    0     1.008    0.807242   -2.069571   -7.114863
  36 H     1.0000    0     1.008   -1.028949   -0.037394   -5.105336
  37 H     1.0000    0     1.008   -2.389466   -2.927042   -6.289077
  38 C     6.0000    0    12.011    1.153283   -8.266290   -3.066003
  39 C     6.0000    0    12.011   -0.058020   -7.652854   -5.236158
  40 H     1.0000    0     1.008    3.206657   -8.437902   -2.973520
  41 H     1.0000    0     1.008    0.093752   -8.876900   -1.399480
  42 H     1.0000    0     1.008    0.969055   -7.236515   -6.974116
  43 H     1.0000    0     1.008   -2.117421   -7.683898   -5.357661

--------------------------------
INTERNAL COORDINATES (ANGSTROEM)
--------------------------------
 Cr     0   0   0     0.000000000000     0.00000000     0.00000000
 O      1   0   0     2.085540024075     0.00000000     0.00000000
 N      1   2   0     1.975566682916    78.22360278     0.00000000
 N      1   2   3     1.970972399195   157.92083930    26.29690936
 C      2   1   3     1.421439056719   123.92029455   168.24696728
 C      5   2   1     1.389594701060   117.68400033    93.16840477
 C      5   2   1     1.391332341459   119.36208480   275.76271076
 C      6   5   2     1.398479665263   118.27355433   183.88159364
 H      6   5   2     1.090102786954   120.13733201     4.90598525
 C      7   5   2     1.396910749729   118.11135556   176.34598912
 H      7   5   2     1.089336704940   120.30225771   355.87608626
 C      8   6   5     1.397250732896   120.10484066   359.48168043
 H      8   6   5     1.089822594869   119.59853442   179.97184045
 H     12   8   6     1.089795251758   119.84568338   180.07107150
 H     10   7   5     1.089893416589   119.51654274   180.04120279
 C      2   1   3     1.419715628461   114.01404516     9.25624750
 C      3   1   2     1.397625328537   118.14974317   351.21140730
 C     17   3   1     1.401934840054   127.02947612   187.00330983
 C     16   2   1     1.383858902229   123.36037089   173.39599801
 C     19  16   2     1.399877412565   117.97197401   178.42861877
 H     19  16   2     1.088836370899   120.77476233   358.40968743
 C     18  17   3     1.394731080671   119.77126996   180.11094284
 H     18  17   3     1.089643346607   120.18119334     0.64557972
 H     20  19  16     1.089248383544   119.30926228   179.83781528
 H     22  18  17     1.089481730094   119.38778344   180.24447164
 C      3   1   2     1.333683481446   114.54440867   172.17891435
 C     26   3   1     1.397716120559   115.88684721   358.99869873
 C      4   1   2     1.354400560529   141.01110358   156.44516995
 C     28   4   1     1.411842303197   110.46514560   175.90027804
 H     28   4   1     1.087477074891   121.52144587   356.36923891
 C     29  28   4     1.398179915251   107.06560934   359.73062963
 H     31  29  28     1.086030693530   127.28142384   179.70656170
 H     29  28   4     1.085304444097   125.77738502   179.67731157
 H     26   3   1     1.092612804896   121.75525458   179.51844131
 C      1   2   3     2.023802649119    95.78275480   263.03035662
 H     35   1   2     1.097155950951   109.43103511   191.47777943
 H     35   1   2     1.099169914064   107.66928416    72.10482446
 H     35   1   2     1.099259756660   109.13318290   312.55497929
 C      1   2   3     2.385967028068    97.72470845   147.77198944
 C     39   1   2     1.354645391849    79.15811073    90.82624455
 H     39   1   2     1.091484754037   101.00594839   211.58813951
 H     39   1   2     1.093842281226    97.75470931   330.84278550
 H     40  39   1     1.090762402684   121.83074815    94.06864550
 H     40  39   1     1.091806714188   121.24012036   269.66483693

---------------------------
INTERNAL COORDINATES (A.U.)
---------------------------
 Cr     0   0   0     0.000000000000     0.00000000     0.00000000
 O      1   0   0     3.941099486833     0.00000000     0.00000000
 N      1   2   0     3.733279990011    78.22360278     0.00000000
 N      1   2   3     3.724598051996   157.92083930    26.29690936
 C      2   1   3     2.686130533259   123.92029455   168.24696728
 C      5   2   1     2.625953422151   117.68400033    93.16840477
 C      5   2   1     2.629237086626   119.36208480   275.76271076
 C      6   5   2     2.642743571205   118.27355433   183.88159364
 H      6   5   2     2.059995725167   120.13733201     4.90598525
 C      7   5   2     2.639778750518   118.11135556   176.34598912
 H      7   5   2     2.058548039965   120.30225771   355.87608626
 C      8   6   5     2.640421225595   120.10484066   359.48168043
 H      8   6   5     2.059466238862   119.59853442   179.97184045
 H     12   8   6     2.059414567871   119.84568338   180.07107150
 H     10   7   5     2.059600072516   119.51654274   180.04120279
 C      2   1   3     2.682873725839   114.01404516     9.25624750
 C      3   1   2     2.641129108766   118.14974317   351.21140730
 C     17   3   1     2.649272905304   127.02947612   187.00330983
 C     16   2   1     2.615114333202   123.36037089   173.39599801
 C     19  16   2     2.645384930811   117.97197401   178.42861877
 H     19  16   2     2.057602545651   120.77476233   358.40968743
 C     18  17   3     2.635659772937   119.77126996   180.11094284
 H     18  17   3     2.059127508736   120.18119334     0.64557972
 H     20  19  16     2.058381136714   119.30926228   179.83781528
 H     22  18  17     2.058822097788   119.38778344   180.24447164
 C      3   1   2     2.520296529268   114.54440867   172.17891435
 C     26   3   1     2.641300680824   115.88684721   358.99869873
 C      4   1   2     2.559446135029   141.01110358   156.44516995
 C     28   4   1     2.667995297327   110.46514560   175.90027804
 H     28   4   1     2.055033848462   121.52144587   356.36923891
 C     29  28   4     2.642177125773   107.06560934   359.73062963
 H     31  29  28     2.052300583804   127.28142384   179.70656170
 H     29  28   4     2.050928171272   125.77738502   179.67731157
 H     26   3   1     2.064738971668   121.75525458   179.51844131
 C      1   2   3     3.824432755939    95.78275480   263.03035662
 H     35   1   2     2.073324273499   109.43103511   191.47777943
 H     35   1   2     2.077130112226   107.66928416    72.10482446
 H     35   1   2     2.077299890128   109.13318290   312.55497929
 C      1   2   3     4.508824247614    97.72470845   147.77198944
 C     39   1   2     2.559908799172    79.15811073    90.82624455
 H     39   1   2     2.062607264481   101.00594839   211.58813951
 H     39   1   2     2.067062345220    97.75470931   330.84278550
 H     40  39   1     2.061242218250   121.83074815    94.06864550
 H     40  39   1     2.063215680992   121.24012036   269.66483693

---------------------
BASIS SET INFORMATION
---------------------
There are 5 groups of distinct atoms

 Group   1 Type Cr  : 17s11p7d1f contracted to 6s4p4d1f pattern {842111/6311/4111/1}
 Group   2 Type O   : 11s6p2d1f contracted to 5s3p2d1f pattern {62111/411/11/1}
 Group   3 Type N   : 11s6p2d1f contracted to 5s3p2d1f pattern {62111/411/11/1}
 Group   4 Type C   : 11s6p2d1f contracted to 5s3p2d1f pattern {62111/411/11/1}
 Group   5 Type H   : 5s1p contracted to 3s1p pattern {311/1}

Atom   0Cr   basis set group =>   1
Atom   1O    basis set group =>   2
Atom   2N    basis set group =>   3
Atom   3N    basis set group =>   3
Atom   4C    basis set group =>   4
Atom   5C    basis set group =>   4
Atom   6C    basis set group =>   4
Atom   7C    basis set group =>   4
Atom   8H    basis set group =>   5
Atom   9C    basis set group =>   4
Atom  10H    basis set group =>   5
Atom  11C    basis set group =>   4
Atom  12H    basis set group =>   5
Atom  13H    basis set group =>   5
Atom  14H    basis set group =>   5
Atom  15C    basis set group =>   4
Atom  16C    basis set group =>   4
Atom  17C    basis set group =>   4
Atom  18C    basis set group =>   4
Atom  19C    basis set group =>   4
Atom  20H    basis set group =>   5
Atom  21C    basis set group =>   4
Atom  22H    basis set group =>   5
Atom  23H    basis set group =>   5
Atom  24H    basis set group =>   5
Atom  25C    basis set group =>   4
Atom  26C    basis set group =>   4
Atom  27C    basis set group =>   4
Atom  28C    basis set group =>   4
Atom  29H    basis set group =>   5
Atom  30C    basis set group =>   4
Atom  31H    basis set group =>   5
Atom  32H    basis set group =>   5
Atom  33H    basis set group =>   5
Atom  34C    basis set group =>   4
Atom  35H    basis set group =>   5
Atom  36H    basis set group =>   5
Atom  37H    basis set group =>   5
Atom  38C    basis set group =>   4
Atom  39C    basis set group =>   4
Atom  40H    basis set group =>   5
Atom  41H    basis set group =>   5
Atom  42H    basis set group =>   5
Atom  43H    basis set group =>   5
---------------------------------
AUXILIARY/J BASIS SET INFORMATION
---------------------------------
There are 5 groups of distinct atoms

 Group   1 Type Cr  : 19s5p5d3f3g contracted to 8s5p5d2f3g pattern {121111111/11111/11111/21/111}
 Group   2 Type O   : 12s5p4d2f1g contracted to 6s4p3d1f1g pattern {711111/2111/211/2/1}
 Group   3 Type N   : 12s5p4d2f1g contracted to 6s4p3d1f1g pattern {711111/2111/211/2/1}
 Group   4 Type C   : 12s5p4d2f1g contracted to 6s4p3d1f1g pattern {711111/2111/211/2/1}
 Group   5 Type H   : 5s2p1d contracted to 3s1p1d pattern {311/2/1}

Atom   0Cr   basis set group =>   1
Atom   1O    basis set group =>   2
Atom   2N    basis set group =>   3
Atom   3N    basis set group =>   3
Atom   4C    basis set group =>   4
Atom   5C    basis set group =>   4
Atom   6C    basis set group =>   4
Atom   7C    basis set group =>   4
Atom   8H    basis set group =>   5
Atom   9C    basis set group =>   4
Atom  10H    basis set group =>   5
Atom  11C    basis set group =>   4
Atom  12H    basis set group =>   5
Atom  13H    basis set group =>   5
Atom  14H    basis set group =>   5
Atom  15C    basis set group =>   4
Atom  16C    basis set group =>   4
Atom  17C    basis set group =>   4
Atom  18C    basis set group =>   4
Atom  19C    basis set group =>   4
Atom  20H    basis set group =>   5
Atom  21C    basis set group =>   4
Atom  22H    basis set group =>   5
Atom  23H    basis set group =>   5
Atom  24H    basis set group =>   5
Atom  25C    basis set group =>   4
Atom  26C    basis set group =>   4
Atom  27C    basis set group =>   4
Atom  28C    basis set group =>   4
Atom  29H    basis set group =>   5
Atom  30C    basis set group =>   4
Atom  31H    basis set group =>   5
Atom  32H    basis set group =>   5
Atom  33H    basis set group =>   5
Atom  34C    basis set group =>   4
Atom  35H    basis set group =>   5
Atom  36H    basis set group =>   5
Atom  37H    basis set group =>   5
Atom  38C    basis set group =>   4
Atom  39C    basis set group =>   4
Atom  40H    basis set group =>   5
Atom  41H    basis set group =>   5
Atom  42H    basis set group =>   5
Atom  43H    basis set group =>   5
------------------------------------------------------------------------------
                           ORCA GTO INTEGRAL CALCULATION
                           -- RI-GTO INTEGRALS CHOSEN --
------------------------------------------------------------------------------

                         BASIS SET STATISTICS AND STARTUP INFO

Gaussian basis set:
 # of primitive gaussian shells          ...  616
 # of primitive gaussian functions       ... 1310
 # of contracted shells                  ...  348
 # of contracted basis functions         ...  878
 Highest angular momentum                ...    3
 Maximum contraction depth               ...    8
Auxiliary gaussian basis set:
 # of primitive gaussian shells          ...  747
 # of primitive gaussian functions       ... 2037
 # of contracted shells                  ...  468
 # of contracted aux-basis functions     ... 1436
 Highest angular momentum                ...    4
 Maximum contraction depth               ...   12
Ratio of auxiliary to basis functions    ...  1.64
Integral package used                  ... LIBINT
 One Electron integrals                  ... done
 Ordering auxiliary basis shells         ... done
 Integral threshhold             Thresh  ...  2.500e-11
 Primitive cut-off               TCut    ...  2.500e-12
 Pre-screening matrix                    ... done
 Shell pair data                         ... 
 Ordering of the shell pairs             ... done (   0.005 sec) 44031 of 60726 pairs
 Determination of significant pairs      ... done (   0.000 sec)
 Creation of shell pair data             ... done (   0.003 sec)
 Storage of shell pair data              ... done (   0.005 sec)
 Shell pair data done in (   0.013 sec)
 Computing two index integrals           ... done
 Cholesky decomposition of the V-matrix  ... done


Timings:
 Total evaluation time                   ...   0.711 sec (  0.012 min)
 One electron matrix time                ...   0.220 sec (  0.004 min) = 30.9%
 Schwartz matrix evaluation time         ...   0.332 sec (  0.006 min) = 46.6%
 Two index repulsion integral time       ...   0.066 sec (  0.001 min) =  9.3%
 Cholesky decomposition of V             ...   0.069 sec (  0.001 min) =  9.8%
 Three index repulsion integral time     ...   0.000 sec (  0.000 min) =  0.0%

-------------------------------------------------------------------------------
                                 ORCA SCF
-------------------------------------------------------------------------------

------------
SCF SETTINGS
------------
Hamiltonian:
 Density Functional     Method          .... DFT(GTOs)
 Exchange Functional    Exchange        .... B88
   X-Alpha parameter    XAlpha          ....  0.666667
   Becke's b parameter  XBeta           ....  0.004200
 Correlation Functional Correlation     .... P86
 LDA part of GGA corr.  LDAOpt          .... PW91-LDA
 Gradients option       PostSCFGGA      .... off
   Density functional embedding theory  .... OFF
 RI-approximation to the Coulomb term is turned on
   Number of auxiliary basis functions  .... 1436
   RIJ-COSX (HFX calculated with COS-X)).... on


General Settings:
 Integral files         IntName         .... IM1_2F-1_Solv-1
 Hartree-Fock type      HFTyp           .... UHF
 Total Charge           Charge          ....    1
 Multiplicity           Mult            ....    4
 Number of Electrons    NEL             ....  185
 Basis Dimension        Dim             ....  878
 Nuclear Repulsion      ENuc            ....   2453.1471727977 Eh

Convergence Acceleration:
 DIIS                   CNVDIIS         .... on
   Start iteration      DIISMaxIt       ....    12
   Startup error        DIISStart       ....  0.200000
   # of expansion vecs  DIISMaxEq       ....     5
   Bias factor          DIISBfac        ....   1.050
   Max. coefficient     DIISMaxC        ....  10.000
 Newton-Raphson         CNVNR           .... off
 SOSCF                  CNVSOSCF        .... off
 Level Shifting         CNVShift        .... on
   Level shift para.    LevelShift      ....    0.2500
   Turn off err/grad.   ShiftErr        ....    0.0010
 Zerner damping         CNVZerner       .... off
 Static damping         CNVDamp         .... on
   Fraction old density DampFac         ....    0.7000
   Max. Damping (<1)    DampMax         ....    0.9800
   Min. Damping (>=0)   DampMin         ....    0.0000
   Turn off err/grad.   DampErr         ....    0.1000
 Fernandez-Rico         CNVRico         .... off

SCF Procedure:
 Maximum # iterations   MaxIter         ....   125
 SCF integral mode      SCFMode         .... Direct
   Integral package                     .... LIBINT
 Reset frequency        DirectResetFreq ....    20
 Integral Threshold     Thresh          ....  2.500e-11 Eh
 Primitive CutOff       TCut            ....  2.500e-12 Eh

Convergence Tolerance:
 Convergence Check Mode ConvCheckMode   .... Total+1el-Energy
 Convergence forced     ConvForced      .... 0
 Energy Change          TolE            ....  1.000e-08 Eh
 1-El. energy change                    ....  1.000e-05 Eh
 DIIS Error             TolErr          ....  5.000e-07


Diagonalization of the overlap matrix:
Smallest eigenvalue                        ... 5.716e-06
Time for diagonalization                   ...    0.079 sec
Threshold for overlap eigenvalues          ... 1.000e-08
Number of eigenvalues below threshold      ... 0
Time for construction of square roots      ...    0.052 sec
Total time needed                          ...    0.132 sec

---------------------
INITIAL GUESS: MOREAD
---------------------
Guess MOs are being read from file: IM1_2F-1_Tight.ges
Input Geometry matches current geometry (good)
Atom 0: N(Shells)= 15 and 17 - projection required
Input basis set needs projection
NBasis(read)= 974
NBasis(calc)= 878
Basis set overlap was calculated
Using GuessMode=FMatrix for the initial guess
C*T matrix was formed
Effective Fockian was calculated
Effective Fockian was diagonalized
Initial density was built
C*T matrix was formed
Effective Fockian was calculated
Effective Fockian was diagonalized
Initial density was built
                      ------------------
                      INITIAL GUESS DONE (   0.5 sec)
                      ------------------
-------------------
DFT GRID GENERATION
-------------------

General Integration Accuracy     IntAcc      ...  5.340
Radial Grid Type                 RadialGrid  ... Gauss-Chebyshev
Angular Grid (max. acc.)         AngularGrid ... Lebedev-590
Angular grid pruning method      GridPruning ... 3 (G Style)
Weight generation scheme         WeightScheme... Becke
Basis function cutoff            BFCut       ...    1.0000e-11
Integration weight cutoff        WCut        ...    1.0000e-14
Grids for H and He will be reduced by one unit

# of grid points (after initial pruning)     ... 623684 (   0.4 sec)
# of grid points (after weights+screening)   ... 533678 (   3.5 sec)
nearest neighbour list constructed           ...    0.0 sec
Grid point re-assignment to atoms done       ...    0.0 sec
Grid point division into batches done        ...    3.3 sec
Reduced shell lists constructed in    9.2 sec

Total number of grid points                  ...   533678
Total number of batches                      ...     8362
Average number of points per batch           ...       63
Average number of grid points per atom       ...    12129
Average number of shells per batch           ...   138.12 (39.69%)
Average number of basis functions per batch  ...   334.15 (38.06%)
Average number of large shells per batch     ...    88.38 (63.99%)
Average number of large basis fcns per batch ...   214.97 (64.33%)
Maximum spatial batch extension              ...  21.91, 23.08, 21.87 au
Average spatial batch extension              ...   1.58,  1.61,  1.61 au

Time for grid setup =   13.229 sec

--------------------
COSX GRID GENERATION
--------------------

General Integration Accuracy     IntAcc      ...  3.340
Radial Grid Type                 RadialGrid  ... Gauss-Chebyshev
Angular Grid (max. acc.)         AngularGrid ... Lebedev-50
Angular grid pruning method      GridPruning ... 3 (G Style)
Weight generation scheme         WeightScheme... Becke
Basis function cutoff            BFCut       ...    1.0000e-11
Integration weight cutoff        WCut        ...    1.0000e-14
Grids for H and He will be reduced by one unit

# of grid points (after initial pruning)     ...  20754 (   0.0 sec)
# of grid points (after weights+screening)   ...  18578 (   0.1 sec)
nearest neighbour list constructed           ...    0.0 sec
Grid point re-assignment to atoms done       ...    0.0 sec
Grid point division into batches done        ...    0.0 sec
Reduced shell lists constructed in    0.3 sec

Total number of grid points                  ...    18578
Total number of batches                      ...      315
Average number of points per batch           ...       58
Average number of grid points per atom       ...      422
Average number of shells per batch           ...   174.70 (50.20%)
Average number of basis functions per batch  ...   434.57 (49.50%)
Average number of large shells per batch     ...   115.70 (66.23%)
Average number of large basis fcns per batch ...   288.05 (66.28%)
Maximum spatial batch extension              ...  16.74, 20.68, 20.93 au
Average spatial batch extension              ...   4.30,  4.72,  5.16 au

Overlap Fitting                  UseSFitting ... on
Constructing numerical overlap ... done (      0.3 sec)
Inverting numerical overlap    ... done (      0.0 sec)
Obtaining analytic overlap     ... done (      0.0 sec)
Final contraction and storage  ... done (      0.0 sec)


General Integration Accuracy     IntAcc      ...  3.670
Radial Grid Type                 RadialGrid  ... Gauss-Chebyshev
Angular Grid (max. acc.)         AngularGrid ... Lebedev-50
Angular grid pruning method      GridPruning ... 3 (G Style)
Weight generation scheme         WeightScheme... Becke
Basis function cutoff            BFCut       ...    1.0000e-11
Integration weight cutoff        WCut        ...    1.0000e-14
Grids for H and He will be reduced by one unit

# of grid points (after initial pruning)     ...  26236 (   0.0 sec)
# of grid points (after weights+screening)   ...  23408 (   0.1 sec)
nearest neighbour list constructed           ...    0.0 sec
Grid point re-assignment to atoms done       ...    0.0 sec
Grid point division into batches done        ...    0.0 sec
Reduced shell lists constructed in    0.3 sec

Total number of grid points                  ...    23408
Total number of batches                      ...      383
Average number of points per batch           ...       61
Average number of grid points per atom       ...      532
Average number of shells per batch           ...   171.17 (49.19%)
Average number of basis functions per batch  ...   424.59 (48.36%)
Average number of large shells per batch     ...   112.48 (65.71%)
Average number of large basis fcns per batch ...   279.08 (65.73%)
Maximum spatial batch extension              ...  21.55, 19.54, 22.63 au
Average spatial batch extension              ...   4.16,  4.44,  4.86 au

Overlap Fitting                  UseSFitting ... on
Constructing numerical overlap ... done (      0.3 sec)
Inverting numerical overlap    ... done (      0.0 sec)
Obtaining analytic overlap     ... done (      0.0 sec)
Final contraction and storage  ... done (      0.0 sec)


General Integration Accuracy     IntAcc      ...  4.010
Radial Grid Type                 RadialGrid  ... Gauss-Chebyshev
Angular Grid (max. acc.)         AngularGrid ... Lebedev-110
Angular grid pruning method      GridPruning ... 3 (G Style)
Weight generation scheme         WeightScheme... Becke
Basis function cutoff            BFCut       ...    1.0000e-11
Integration weight cutoff        WCut        ...    1.0000e-14
Grids for H and He will be reduced by one unit

# of grid points (after initial pruning)     ...  49682 (   0.0 sec)
# of grid points (after weights+screening)   ...  44038 (   0.3 sec)
nearest neighbour list constructed           ...    0.0 sec
Grid point re-assignment to atoms done       ...    0.0 sec
Grid point division into batches done        ...    0.0 sec
Reduced shell lists constructed in    0.6 sec

Total number of grid points                  ...    44038
Total number of batches                      ...      712
Average number of points per batch           ...       61
Average number of grid points per atom       ...     1001
Average number of shells per batch           ...   163.79 (47.07%)
Average number of basis functions per batch  ...   404.46 (46.07%)
Average number of large shells per batch     ...   107.80 (65.82%)
Average number of large basis fcns per batch ...   266.57 (65.91%)
Maximum spatial batch extension              ...  20.74, 22.47, 20.69 au
Average spatial batch extension              ...   3.47,  3.63,  3.84 au

Overlap Fitting                  UseSFitting ... on
Constructing numerical overlap ... done (      0.6 sec)
Inverting numerical overlap    ... done (      0.0 sec)
Obtaining analytic overlap     ... done (      0.0 sec)
Final contraction and storage  ... done (      0.0 sec)

Time for X-Grid setup             =    3.058 sec

--------------------
CPCM SOLVATION MODEL
--------------------
CPCM parameters:
  Epsilon                                         ...       2.3741
  Refrac                                          ...       1.3300
  Rsolv                                           ...       1.3000
  Surface type                                    ...    GEPOL SES
  Epsilon function type                           ...         CPCM
Solvent:                                     ... TOLUENE
SMD-CDS solvent descriptors:
  Soln                                       ...    1.4961
  Soln25                                     ...    1.4936
  Sola                                       ...    0.0000
  Solb                                       ...    0.1400
  Solg                                       ...   40.2000
  Solc                                       ...    0.8570
  Solh                                       ...    0.0000
Radii:
 Radius for Cr used is    3.5716 Bohr (=   1.8900 Ang.)
 Radius for O  used is    4.3350 Bohr (=   2.2940 Ang.)
 Radius for N  used is    3.5716 Bohr (=   1.8900 Ang.)
 Radius for C  used is    3.4960 Bohr (=   1.8500 Ang.)
 Radius for H  used is    2.2677 Bohr (=   1.2000 Ang.)
Calculating surface                               ...        done! (  0.1s)
GEPOL surface points                              ...         1604
GEPOL Volume                                      ...    2464.2108
GEPOL Surface-area                                ...    1177.4374
Calculating surface distance matrix               ...        done! (  0.0s)
Performing Cholesky decomposition & store         ...        done! (  0.1s)
Overall time for CPCM initialization              ...                 0.2s
--------------
SCF ITERATIONS
--------------
ITER       Energy         Delta-E        Max-DP      RMS-DP      [F,P]     Damp
               ***  Starting incremental Fock matrix formation  ***
  0  -2003.7341097787   0.000000000000 0.00305002  0.00003909  0.0045125 0.7000
  1  -2003.7344059264  -0.000296147610 0.00232530  0.00003816  0.0031103 0.7000
                               ***Turning on DIIS***
  2  -2003.7345877638  -0.000181837426 0.00617512  0.00009859  0.0023452 0.0000
  3  -2003.7349551665  -0.000367402681 0.00100202  0.00001066  0.0016612 0.0000
  4  -2003.7349859971  -0.000030830630 0.00106478  0.00000686  0.0007064 0.0000
  5  -2003.7349885943  -0.000002597176 0.00096387  0.00000252  0.0013439 0.0000
  6  -2003.7349962837  -0.000007689385 0.00041683  0.00000226  0.0002845 0.0000
  7  -2003.7349965314  -0.000000247730 0.00014267  0.00000135  0.0002080 0.0000
  8  -2003.7349971158  -0.000000584439 0.00012804  0.00000082  0.0001531 0.0000
  9  -2003.7349971648  -0.000000048998 0.00006456  0.00000059  0.0000503 0.0000
 10  -2003.7349971705  -0.000000005633 0.00008174  0.00000069  0.0000252 0.0000
 11  -2003.7349971806  -0.000000010174 0.00004534  0.00000039  0.0000414 0.0000
 12  -2003.7349972370  -0.000000056405 0.00011652  0.00000102  0.0000064 0.0000
 13  -2003.7349972389  -0.000000001841 0.00006428  0.00000036  0.0000019 0.0000
 14  -2003.7349972281   0.000000010726 0.00004939  0.00000036  0.0000014 0.0000
                            ***DIIS convergence achieved***

               *****************************************************
               *                     SUCCESS                       *
               *           SCF CONVERGED AFTER  15 CYCLES          *
               *****************************************************

Setting up the final grid:

General Integration Accuracy     IntAcc      ...  5.340
Radial Grid Type                 RadialGrid  ... Gauss-Chebyshev
Angular Grid (max. acc.)         AngularGrid ... Lebedev-590
Angular grid pruning method      GridPruning ... 3 (G Style)
Weight generation scheme         WeightScheme... Becke
Basis function cutoff            BFCut       ...    1.0000e-11
Integration weight cutoff        WCut        ...    1.0000e-14
Grids for H and He will be reduced by one unit

# of grid points (after initial pruning)     ... 623684 (   0.2 sec)
# of grid points (after weights+screening)   ... 533678 (   3.5 sec)
nearest neighbour list constructed           ...    0.0 sec
Grid point re-assignment to atoms done       ...    0.0 sec
Grid point division into batches done        ...    3.3 sec
Reduced shell lists constructed in    9.4 sec

Total number of grid points                  ...   533678
Total number of batches                      ...     8362
Average number of points per batch           ...       63
Average number of grid points per atom       ...    12129
Average number of shells per batch           ...   138.12 (39.69%)
Average number of basis functions per batch  ...   334.15 (38.06%)
Average number of large shells per batch     ...    88.38 (63.99%)
Average number of large basis fcns per batch ...   214.97 (64.33%)
Maximum spatial batch extension              ...  21.91, 23.08, 21.87 au
Average spatial batch extension              ...   1.58,  1.61,  1.61 au

Final grid set up in   13.1 sec
Final integration                            ... done (  27.9 sec)
Change in XC energy                          ...     0.000000000
Integrated number of electrons               ...   184.999899621
Previous integrated no of electrons          ...   184.999899623

SMD CDS free energy correction energy :                -8.04834     Kcal/mol
Total Energy after SMD CDS correction =             -2003.747823076 Eh

----------------
TOTAL SCF ENERGY
----------------

Total Energy       :        -2003.74782308 Eh          -54524.75025 eV

Components:
Nuclear Repulsion  :         2453.14717280 Eh           66753.52826 eV
Electronic Energy  :        -4456.89499587 Eh         -121278.27851 eV
One Electron Energy:        -7593.34681703 Eh         -206625.47153 eV
Two Electron Energy:         3136.45182116 Eh           85347.19302 eV
CPCM Dielectric    :           -0.04477388 Eh              -1.21836 eV
SMD CDS (Gcds)     :           -0.01282585 Eh              -0.34901 eV

Virial components:
Potential Energy   :        -4001.00633387 Eh         -108872.91734 eV
Kinetic Energy     :         1997.25851079 Eh           54348.16709 eV
Virial Ratio       :            2.00324911


DFT components:
N(Alpha)           :       93.999950017778 electrons
N(Beta)            :       90.999949603567 electrons
N(Total)           :      184.999899621345 electrons
E(X)               :     -180.052961856360 Eh       
E(C)               :       -7.048749825989 Eh       
E(XC)              :     -187.101711682348 Eh       
DFET-embed. en.    :        0.000000000000 Eh       
CPCM Solvation Model Properties:
Surface-charge          :           -1.06016290
Charge-correction       :            0.00394233 Eh               0.10728 eV
Free-energy (cav+disp)  :            0.00565916 Eh               0.15399 eV
Corrected G(solv)       :        -2003.73822159 Eh          -54524.48898 eV

---------------
SCF CONVERGENCE
---------------

  Last Energy change         ...    2.6687e-09  Tolerance :   1.0000e-08
  Last MAX-Density change    ...    5.3080e-05  Tolerance :   1.0000e-07
  Last RMS-Density change    ...    3.4635e-07  Tolerance :   5.0000e-09
  Last DIIS Error            ...    3.1933e-07  Tolerance :   5.0000e-07

             **** THE GBW FILE WAS UPDATED (IM1_2F-1_Solv-1.gbw) ****
             **** DENSITY FILE WAS UPDATED (IM1_2F-1_Solv-1.scfp) ****
             **** ENERGY FILE WAS UPDATED (IM1_2F-1_Solv-1.en.tmp) ****
----------------------
UHF SPIN CONTAMINATION
----------------------

Warning: in a DFT calculation there is little theoretical justification to 
         calculate <S**2> as in Hartree-Fock theory. We will do it anyways
         but you should keep in mind that the values have only limited relevance

Expectation value of <S**2>     :     3.809946
Ideal value S*(S+1) for S=1.5   :     3.750000
Deviation                       :     0.059946

             **** THE GBW FILE WAS UPDATED (IM1_2F-1_Solv-1.gbw) ****
             **** DENSITY FILE WAS UPDATED (IM1_2F-1_Solv-1.scfp) ****
----------------
ORBITAL ENERGIES
----------------
                 SPIN UP ORBITALS
  NO   OCC          E(Eh)            E(eV) 
   0   1.0000    -214.631455     -5840.4188 
   1   1.0000     -24.364967      -663.0045 
   2   1.0000     -20.729855      -564.0880 
   3   1.0000     -20.728648      -564.0552 
   4   1.0000     -20.725226      -563.9621 
   5   1.0000     -18.918970      -514.8114 
   6   1.0000     -14.095266      -383.5517 
   7   1.0000     -14.074606      -382.9895 
   8   1.0000     -10.031365      -272.9673 
   9   1.0000     -10.029950      -272.9288 
  10   1.0000     -10.018636      -272.6210 
  11   1.0000     -10.006862      -272.3006 
  12   1.0000      -9.986691      -271.7517 
  13   1.0000      -9.986399      -271.7437 
  14   1.0000      -9.982856      -271.6473 
  15   1.0000      -9.982629      -271.6411 
  16   1.0000      -9.968784      -271.2644 
  17   1.0000      -9.968150      -271.2471 
  18   1.0000      -9.964813      -271.1564 
  19   1.0000      -9.963624      -271.1240 
  20   1.0000      -9.963598      -271.1233 
  21   1.0000      -9.963429      -271.1187 
  22   1.0000      -9.959194      -271.0035 
  23   1.0000      -9.958086      -270.9733 
  24   1.0000      -9.957692      -270.9626 
  25   1.0000      -9.955647      -270.9069 
  26   1.0000      -9.946240      -270.6509 
  27   1.0000      -9.926771      -270.1212 
  28   1.0000      -2.843023       -77.3626 
  29   1.0000      -1.837329       -49.9963 
  30   1.0000      -1.835371       -49.9430 
  31   1.0000      -1.826482       -49.7011 
  32   1.0000      -1.080151       -29.3924 
  33   1.0000      -0.950543       -25.8656 
  34   1.0000      -0.923171       -25.1207 
  35   1.0000      -0.852217       -23.1900 
  36   1.0000      -0.838018       -22.8036 
  37   1.0000      -0.781202       -21.2576 
  38   1.0000      -0.774399       -21.0725 
  39   1.0000      -0.755972       -20.5710 
  40   1.0000      -0.748849       -20.3772 
  41   1.0000      -0.745772       -20.2935 
  42   1.0000      -0.731285       -19.8993 
  43   1.0000      -0.711522       -19.3615 
  44   1.0000      -0.659570       -17.9478 
  45   1.0000      -0.653564       -17.7844 
  46   1.0000      -0.646436       -17.5904 
  47   1.0000      -0.620141       -16.8749 
  48   1.0000      -0.605120       -16.4662 
  49   1.0000      -0.603263       -16.4156 
  50   1.0000      -0.592428       -16.1208 
  51   1.0000      -0.580599       -15.7989 
  52   1.0000      -0.558913       -15.2088 
  53   1.0000      -0.546110       -14.8604 
  54   1.0000      -0.536887       -14.6094 
  55   1.0000      -0.523904       -14.2562 
  56   1.0000      -0.515970       -14.0403 
  57   1.0000      -0.506587       -13.7849 
  58   1.0000      -0.498414       -13.5625 
  59   1.0000      -0.495012       -13.4700 
  60   1.0000      -0.468941       -12.7605 
  61   1.0000      -0.465277       -12.6608 
  62   1.0000      -0.458786       -12.4842 
  63   1.0000      -0.455126       -12.3846 
  64   1.0000      -0.453176       -12.3316 
  65   1.0000      -0.449924       -12.2431 
  66   1.0000      -0.444159       -12.0862 
  67   1.0000      -0.433830       -11.8051 
  68   1.0000      -0.433777       -11.8037 
  69   1.0000      -0.408834       -11.1249 
  70   1.0000      -0.407617       -11.0918 
  71   1.0000      -0.404394       -11.0041 
  72   1.0000      -0.403639       -10.9836 
  73   1.0000      -0.399053       -10.8588 
  74   1.0000      -0.396812       -10.7978 
  75   1.0000      -0.394404       -10.7323 
  76   1.0000      -0.389498       -10.5988 
  77   1.0000      -0.381534       -10.3821 
  78   1.0000      -0.376931       -10.2568 
  79   1.0000      -0.375511       -10.2182 
  80   1.0000      -0.370552       -10.0832 
  81   1.0000      -0.365461        -9.9447 
  82   1.0000      -0.358712        -9.7610 
  83   1.0000      -0.350347        -9.5334 
  84   1.0000      -0.307959        -8.3800 
  85   1.0000      -0.301937        -8.2161 
  86   1.0000      -0.299065        -8.1380 
  87   1.0000      -0.297733        -8.1017 
  88   1.0000      -0.294862        -8.0236 
  89   1.0000      -0.282178        -7.6785 
  90   1.0000      -0.272025        -7.4022 
  91   1.0000      -0.266824        -7.2607 
  92   1.0000      -0.250882        -6.8268 
  93   1.0000      -0.236192        -6.4271 
  94   0.0000      -0.181195        -4.9306 
  95   0.0000      -0.152754        -4.1566 
  96   0.0000      -0.144320        -3.9272 
  97   0.0000      -0.111453        -3.0328 
  98   0.0000      -0.109457        -2.9785 
  99   0.0000      -0.106016        -2.8848 
 100   0.0000      -0.097814        -2.6616 
 101   0.0000      -0.078814        -2.1446 
 102   0.0000      -0.044739        -1.2174 
 103   0.0000      -0.039840        -1.0841 
 104   0.0000      -0.029975        -0.8157 
 105   0.0000      -0.017125        -0.4660 
 106   0.0000      -0.009430        -0.2566 
 107   0.0000      -0.006880        -0.1872 
 108   0.0000      -0.005923        -0.1612 
 109   0.0000      -0.002302        -0.0626 
 110   0.0000       0.010077         0.2742 
 111   0.0000       0.014453         0.3933 
 112   0.0000       0.024207         0.6587 
 113   0.0000       0.026938         0.7330 
 114   0.0000       0.030364         0.8262 
 115   0.0000       0.033964         0.9242 
 116   0.0000       0.039986         1.0881 
 117   0.0000       0.040941         1.1141 
 118   0.0000       0.043558         1.1853 
 119   0.0000       0.048495         1.3196 
 120   0.0000       0.050169         1.3652 
 121   0.0000       0.053931         1.4675 
 122   0.0000       0.055052         1.4980 
 123   0.0000       0.056809         1.5459 
 124   0.0000       0.059048         1.6068 
 125   0.0000       0.064772         1.7625 
 126   0.0000       0.070013         1.9052 
 127   0.0000       0.075417         2.0522 
 128   0.0000       0.083671         2.2768 
 129   0.0000       0.087363         2.3773 
 130   0.0000       0.091178         2.4811 
 131   0.0000       0.093689         2.5494 
 132   0.0000       0.097432         2.6513 
 133   0.0000       0.100388         2.7317 
 134   0.0000       0.106224         2.8905 
 135   0.0000       0.111652         3.0382 
 136   0.0000       0.116300         3.1647 
 137   0.0000       0.119014         3.2385 
 138   0.0000       0.122174         3.3245 
 139   0.0000       0.125675         3.4198 
 140   0.0000       0.135284         3.6813 
 141   0.0000       0.138297         3.7632 
 142   0.0000       0.138474         3.7681 
 143   0.0000       0.142451         3.8763 
 144   0.0000       0.145065         3.9474 
 145   0.0000       0.148705         4.0465 
 146   0.0000       0.155673         4.2361 
 147   0.0000       0.157051         4.2736 
 148   0.0000       0.162489         4.4216 
 149   0.0000       0.168340         4.5808 
 150   0.0000       0.168990         4.5984 
 151   0.0000       0.174392         4.7454 
 152   0.0000       0.178535         4.8582 
 153   0.0000       0.181172         4.9299 
 154   0.0000       0.183899         5.0041 
 155   0.0000       0.191570         5.2129 
 156   0.0000       0.192879         5.2485 
 157   0.0000       0.195980         5.3329 
 158   0.0000       0.198313         5.3964 
 159   0.0000       0.204428         5.5628 
 160   0.0000       0.209234         5.6936 
 161   0.0000       0.214387         5.8338 
 162   0.0000       0.217292         5.9128 
 163   0.0000       0.219570         5.9748 
 164   0.0000       0.223545         6.0830 
 165   0.0000       0.227985         6.2038 
 166   0.0000       0.233850         6.3634 
 167   0.0000       0.235103         6.3975 
 168   0.0000       0.239592         6.5196 
 169   0.0000       0.241268         6.5652 
 170   0.0000       0.247081         6.7234 
 171   0.0000       0.249703         6.7948 
 172   0.0000       0.251162         6.8345 
 173   0.0000       0.256292         6.9741 
 174   0.0000       0.256969         6.9925 
 175   0.0000       0.262598         7.1456 
 176   0.0000       0.274416         7.4672 
 177   0.0000       0.276813         7.5325 
 178   0.0000       0.279379         7.6023 
 179   0.0000       0.282461         7.6861 
 180   0.0000       0.284795         7.7497 
 181   0.0000       0.289039         7.8652 
 182   0.0000       0.290385         7.9018 
 183   0.0000       0.293965         7.9992 
 184   0.0000       0.298660         8.1269 
 185   0.0000       0.309198         8.4137 
 186   0.0000       0.310515         8.4495 
 187   0.0000       0.313874         8.5409 
 188   0.0000       0.321028         8.7356 
 189   0.0000       0.322537         8.7767 
 190   0.0000       0.324464         8.8291 
 191   0.0000       0.331718         9.0265 
 192   0.0000       0.336224         9.1491 
 193   0.0000       0.341036         9.2801 
 194   0.0000       0.346716         9.4346 
 195   0.0000       0.348636         9.4869 
 196   0.0000       0.351265         9.5584 
 197   0.0000       0.353311         9.6141 
 198   0.0000       0.356226         9.6934 
 199   0.0000       0.360602         9.8125 
 200   0.0000       0.362421         9.8620 
 201   0.0000       0.364393         9.9156 
 202   0.0000       0.367827        10.0091 
 203   0.0000       0.371913        10.1203 
 204   0.0000       0.374597        10.1933 
 205   0.0000       0.380958        10.3664 
 206   0.0000       0.381696        10.3865 
 207   0.0000       0.383868        10.4456 
 208   0.0000       0.389218        10.5912 
 209   0.0000       0.391290        10.6475 
 210   0.0000       0.397669        10.8211 
 211   0.0000       0.399832        10.8800 
 212   0.0000       0.404134        10.9971 
 213   0.0000       0.406380        11.0582 
 214   0.0000       0.410756        11.1772 
 215   0.0000       0.413874        11.2621 
 216   0.0000       0.416281        11.3276 
 217   0.0000       0.420059        11.4304 
 218   0.0000       0.421324        11.4648 
 219   0.0000       0.424700        11.5567 
 220   0.0000       0.429528        11.6881 
 221   0.0000       0.436836        11.8869 
 222   0.0000       0.442254        12.0343 
 223   0.0000       0.443340        12.0639 
 224   0.0000       0.444975        12.1084 
 225   0.0000       0.451099        12.2750 
 226   0.0000       0.452466        12.3122 
 227   0.0000       0.459054        12.4915 
 228   0.0000       0.465633        12.6705 
 229   0.0000       0.472160        12.8481 
 230   0.0000       0.477225        12.9859 
 231   0.0000       0.480362        13.0713 
 232   0.0000       0.488038        13.2802 
 233   0.0000       0.489899        13.3308 
 234   0.0000       0.493561        13.4305 
 235   0.0000       0.504580        13.7303 
 236   0.0000       0.508442        13.8354 
 237   0.0000       0.513042        13.9606 
 238   0.0000       0.519373        14.1328 
 239   0.0000       0.520208        14.1556 
 240   0.0000       0.533051        14.5050 
 241   0.0000       0.535074        14.5601 
 242   0.0000       0.545176        14.8350 
 243   0.0000       0.550367        14.9763 
 244   0.0000       0.557690        15.1755 
 245   0.0000       0.559779        15.2324 
 246   0.0000       0.566535        15.4162 
 247   0.0000       0.569832        15.5059 
 248   0.0000       0.578071        15.7301 
 249   0.0000       0.578887        15.7523 
 250   0.0000       0.582322        15.8458 
 251   0.0000       0.587714        15.9925 
 252   0.0000       0.594127        16.1670 
 253   0.0000       0.599401        16.3105 
 254   0.0000       0.600733        16.3468 
 255   0.0000       0.610517        16.6130 
 256   0.0000       0.615301        16.7432 
 257   0.0000       0.615522        16.7492 
 258   0.0000       0.621616        16.9150 
 259   0.0000       0.627486        17.0748 
 260   0.0000       0.637073        17.3356 
 261   0.0000       0.643143        17.5008 
 262   0.0000       0.645353        17.5609 
 263   0.0000       0.648406        17.6440 
 264   0.0000       0.655530        17.8379 
 265   0.0000       0.660382        17.9699 
 266   0.0000       0.666315        18.1314 
 267   0.0000       0.671355        18.2685 
 268   0.0000       0.682268        18.5655 
 269   0.0000       0.684035        18.6135 
 270   0.0000       0.684857        18.6359 
 271   0.0000       0.693613        18.8742 
 272   0.0000       0.700047        19.0493 
 273   0.0000       0.701139        19.0790 
 274   0.0000       0.706058        19.2128 
 275   0.0000       0.711824        19.3697 
 276   0.0000       0.714712        19.4483 
 277   0.0000       0.720709        19.6115 
 278   0.0000       0.724192        19.7063 
 279   0.0000       0.733637        19.9633 
 280   0.0000       0.739277        20.1168 
 281   0.0000       0.742738        20.2109 
 282   0.0000       0.749762        20.4021 
 283   0.0000       0.754639        20.5348 
 284   0.0000       0.769214        20.9314 
 285   0.0000       0.771862        21.0034 
 286   0.0000       0.777977        21.1698 
 287   0.0000       0.782337        21.2885 
 288   0.0000       0.789513        21.4837 
 289   0.0000       0.802558        21.8387 
 290   0.0000       0.804453        21.8903 
 291   0.0000       0.812037        22.0967 
 292   0.0000       0.813413        22.1341 
 293   0.0000       0.827240        22.5103 
 294   0.0000       0.837151        22.7800 
 295   0.0000       0.841707        22.9040 
 296   0.0000       0.844152        22.9705 
 297   0.0000       0.849085        23.1048 
 298   0.0000       0.856691        23.3117 
 299   0.0000       0.871874        23.7249 
 300   0.0000       0.876728        23.8570 
 301   0.0000       0.883043        24.0288 
 302   0.0000       0.887474        24.1494 
 303   0.0000       0.896789        24.4029 
 304   0.0000       0.900104        24.4931 
 305   0.0000       0.909070        24.7370 
 306   0.0000       0.916387        24.9362 
 307   0.0000       0.918895        25.0044 
 308   0.0000       0.925892        25.1948 
 309   0.0000       0.929991        25.3063 
 310   0.0000       0.938054        25.5257 
 311   0.0000       0.939799        25.5732 
 312   0.0000       0.962351        26.1869 
 313   0.0000       0.966175        26.2910 
 314   0.0000       0.972411        26.4606 
 315   0.0000       0.975375        26.5413 
 316   0.0000       0.979100        26.6427 
 317   0.0000       0.980277        26.6747 
 318   0.0000       0.986742        26.8506 
 319   0.0000       0.992880        27.0176 
 320   0.0000       1.000041        27.2125 
 321   0.0000       1.010866        27.5071 
 322   0.0000       1.012692        27.5568 
 323   0.0000       1.019593        27.7445 
 324   0.0000       1.031448        28.0671 
 325   0.0000       1.036451        28.2033 
 326   0.0000       1.040640        28.3172 
 327   0.0000       1.049040        28.5458 
 328   0.0000       1.054800        28.7026 
 329   0.0000       1.064600        28.9692 
 330   0.0000       1.066893        29.0316 
 331   0.0000       1.071617        29.1602 
 332   0.0000       1.075657        29.2701 
 333   0.0000       1.090152        29.6646 
 334   0.0000       1.095437        29.8084 
 335   0.0000       1.098553        29.8932 
 336   0.0000       1.104055        30.0429 
 337   0.0000       1.113920        30.3113 
 338   0.0000       1.123015        30.5588 
 339   0.0000       1.126924        30.6652 
 340   0.0000       1.127772        30.6882 
 341   0.0000       1.131297        30.7842 
 342   0.0000       1.136811        30.9342 
 343   0.0000       1.143499        31.1162 
 344   0.0000       1.151605        31.3368 
 345   0.0000       1.156051        31.4577 
 346   0.0000       1.158885        31.5349 
 347   0.0000       1.165393        31.7120 
 348   0.0000       1.167700        31.7747 
 349   0.0000       1.178993        32.0820 
 350   0.0000       1.184905        32.2429 
 351   0.0000       1.186932        32.2981 
 352   0.0000       1.190036        32.3825 
 353   0.0000       1.207310        32.8526 
 354   0.0000       1.213780        33.0286 
 355   0.0000       1.227030        33.3892 
 356   0.0000       1.235354        33.6157 
 357   0.0000       1.242191        33.8017 
 358   0.0000       1.248363        33.9697 
 359   0.0000       1.255289        34.1581 
 360   0.0000       1.275199        34.6999 
 361   0.0000       1.284347        34.9488 
 362   0.0000       1.286252        35.0007 
 363   0.0000       1.301023        35.4026 
 364   0.0000       1.303912        35.4812 
 365   0.0000       1.306681        35.5566 
 366   0.0000       1.321979        35.9729 
 367   0.0000       1.326073        36.0843 
 368   0.0000       1.336678        36.3729 
 369   0.0000       1.340282        36.4709 
 370   0.0000       1.351116        36.7657 
 371   0.0000       1.355796        36.8931 
 372   0.0000       1.362682        37.0805 
 373   0.0000       1.365102        37.1463 
 374   0.0000       1.374039        37.3895 
 375   0.0000       1.377458        37.4825 
 376   0.0000       1.384012        37.6609 
 377   0.0000       1.393789        37.9269 
 378   0.0000       1.398810        38.0635 
 379   0.0000       1.405215        38.2379 
 380   0.0000       1.407253        38.2933 
 381   0.0000       1.416177        38.5361 
 382   0.0000       1.423158        38.7261 
 383   0.0000       1.424605        38.7655 
 384   0.0000       1.430025        38.9129 
 385   0.0000       1.437834        39.1254 
 386   0.0000       1.445987        39.3473 
 387   0.0000       1.457254        39.6539 
 388   0.0000       1.461778        39.7770 
 389   0.0000       1.464226        39.8436 
 390   0.0000       1.473461        40.0949 
 391   0.0000       1.476725        40.1837 
 392   0.0000       1.482425        40.3388 
 393   0.0000       1.487374        40.4735 
 394   0.0000       1.491024        40.5728 
 395   0.0000       1.494379        40.6641 
 396   0.0000       1.495756        40.7016 
 397   0.0000       1.508517        41.0488 
 398   0.0000       1.510403        41.1001 
 399   0.0000       1.514534        41.2126 
 400   0.0000       1.522212        41.4215 
 401   0.0000       1.527909        41.5765 
 402   0.0000       1.531133        41.6642 
 403   0.0000       1.536966        41.8230 
 404   0.0000       1.541082        41.9350 
 405   0.0000       1.549431        42.1622 
 406   0.0000       1.551540        42.2196 
 407   0.0000       1.559417        42.4339 
 408   0.0000       1.567643        42.6577 
 409   0.0000       1.571761        42.7698 
 410   0.0000       1.576860        42.9086 
 411   0.0000       1.586215        43.1631 
 412   0.0000       1.587423        43.1960 
 413   0.0000       1.597172        43.4613 
 414   0.0000       1.605014        43.6746 
 415   0.0000       1.612193        43.8700 
 416   0.0000       1.613571        43.9075 
 417   0.0000       1.617455        44.0132 
 418   0.0000       1.620712        44.1018 
 419   0.0000       1.625320        44.2272 
 420   0.0000       1.628990        44.3271 
 421   0.0000       1.630881        44.3785 
 422   0.0000       1.640633        44.6439 
 423   0.0000       1.649929        44.8969 
 424   0.0000       1.663736        45.2726 
 425   0.0000       1.668666        45.4067 
 426   0.0000       1.676338        45.6155 
 427   0.0000       1.677974        45.6600 
 428   0.0000       1.688084        45.9351 
 429   0.0000       1.695177        46.1281 
 430   0.0000       1.698265        46.2121 
 431   0.0000       1.712697        46.6049 
 432   0.0000       1.718235        46.7556 
 433   0.0000       1.718597        46.7654 
 434   0.0000       1.724157        46.9167 
 435   0.0000       1.734014        47.1849 
 436   0.0000       1.747592        47.5544 
 437   0.0000       1.755783        47.7773 
 438   0.0000       1.758653        47.8554 
 439   0.0000       1.770353        48.1738 
 440   0.0000       1.780065        48.4380 
 441   0.0000       1.794683        48.8358 
 442   0.0000       1.805999        49.1437 
 443   0.0000       1.809967        49.2517 
 444   0.0000       1.828953        49.7683 
 445   0.0000       1.831904        49.8487 
 446   0.0000       1.838942        50.0402 
 447   0.0000       1.846984        50.2590 
 448   0.0000       1.861656        50.6582 
 449   0.0000       1.865754        50.7697 
 450   0.0000       1.877108        51.0787 
 451   0.0000       1.886228        51.3269 
 452   0.0000       1.894817        51.5606 
 453   0.0000       1.903932        51.8086 
 454   0.0000       1.907449        51.9043 
 455   0.0000       1.918953        52.2174 
 456   0.0000       1.927911        52.4611 
 457   0.0000       1.931800        52.5670 
 458   0.0000       1.939854        52.7861 
 459   0.0000       1.948445        53.0199 
 460   0.0000       1.952097        53.1193 
 461   0.0000       1.960626        53.3514 
 462   0.0000       1.967128        53.5283 
 463   0.0000       1.976235        53.7761 
 464   0.0000       1.980031        53.8794 
 465   0.0000       1.986690        54.0606 
 466   0.0000       1.998814        54.3905 
 467   0.0000       2.010320        54.7036 
 468   0.0000       2.014675        54.8221 
 469   0.0000       2.019161        54.9442 
 470   0.0000       2.023699        55.0677 
 471   0.0000       2.028517        55.1988 
 472   0.0000       2.039085        55.4863 
 473   0.0000       2.046512        55.6884 
 474   0.0000       2.051819        55.8328 
 475   0.0000       2.066990        56.2457 
 476   0.0000       2.069334        56.3094 
 477   0.0000       2.073012        56.4095 
 478   0.0000       2.088538        56.8320 
 479   0.0000       2.095880        57.0318 
 480   0.0000       2.104915        57.2777 
 481   0.0000       2.107626        57.3514 
 482   0.0000       2.117562        57.6218 
 483   0.0000       2.122874        57.7663 
 484   0.0000       2.130657        57.9781 
 485   0.0000       2.148862        58.4735 
 486   0.0000       2.151822        58.5540 
 487   0.0000       2.163226        58.8644 
 488   0.0000       2.171741        59.0961 
 489   0.0000       2.172456        59.1155 
 490   0.0000       2.181277        59.3556 
 491   0.0000       2.190097        59.5956 
 492   0.0000       2.197279        59.7910 
 493   0.0000       2.210714        60.1566 
 494   0.0000       2.217918        60.3526 
 495   0.0000       2.221229        60.4427 
 496   0.0000       2.241865        61.0042 
 497   0.0000       2.244760        61.0830 
 498   0.0000       2.255908        61.3864 
 499   0.0000       2.265308        61.6422 
 500   0.0000       2.276758        61.9537 
 501   0.0000       2.285340        62.1873 
 502   0.0000       2.298948        62.5576 
 503   0.0000       2.303495        62.6813 
 504   0.0000       2.304070        62.6969 
 505   0.0000       2.318780        63.0972 
 506   0.0000       2.325222        63.2725 
 507   0.0000       2.341632        63.7190 
 508   0.0000       2.346098        63.8406 
 509   0.0000       2.353746        64.0487 
 510   0.0000       2.360807        64.2408 
 511   0.0000       2.364345        64.3371 
 512   0.0000       2.375387        64.6376 
 513   0.0000       2.391597        65.0787 
 514   0.0000       2.393894        65.1412 
 515   0.0000       2.398119        65.2561 
 516   0.0000       2.406011        65.4709 
 517   0.0000       2.421813        65.9009 
 518   0.0000       2.428984        66.0960 
 519   0.0000       2.430564        66.1390 
 520   0.0000       2.436835        66.3096 
 521   0.0000       2.444611        66.5212 
 522   0.0000       2.445766        66.5527 
 523   0.0000       2.460127        66.9435 
 524   0.0000       2.464991        67.0758 
 525   0.0000       2.473208        67.2994 
 526   0.0000       2.476001        67.3754 
 527   0.0000       2.477637        67.4199 
 528   0.0000       2.484803        67.6149 
 529   0.0000       2.494138        67.8690 
 530   0.0000       2.495000        67.8924 
 531   0.0000       2.500369        68.0385 
 532   0.0000       2.504260        68.1444 
 533   0.0000       2.506585        68.2076 
 534   0.0000       2.511920        68.3528 
 535   0.0000       2.512542        68.3697 
 536   0.0000       2.521066        68.6017 
 537   0.0000       2.528068        68.7922 
 538   0.0000       2.532929        68.9245 
 539   0.0000       2.534642        68.9711 
 540   0.0000       2.546070        69.2821 
 541   0.0000       2.547802        69.3292 
 542   0.0000       2.550887        69.4132 
 543   0.0000       2.562033        69.7165 
 544   0.0000       2.565523        69.8114 
 545   0.0000       2.575134        70.0730 
 546   0.0000       2.576865        70.1201 
 547   0.0000       2.584056        70.3157 
 548   0.0000       2.586104        70.3715 
 549   0.0000       2.589988        70.4771 
 550   0.0000       2.593843        70.5820 
 551   0.0000       2.607615        70.9568 
 552   0.0000       2.610698        71.0407 
 553   0.0000       2.615801        71.1796 
 554   0.0000       2.623180        71.3804 
 555   0.0000       2.626630        71.4742 
 556   0.0000       2.633756        71.6682 
 557   0.0000       2.637464        71.7690 
 558   0.0000       2.638824        71.8061 
 559   0.0000       2.647671        72.0468 
 560   0.0000       2.651247        72.1441 
 561   0.0000       2.659764        72.3759 
 562   0.0000       2.663877        72.4878 
 563   0.0000       2.677801        72.8667 
 564   0.0000       2.679000        72.8993 
 565   0.0000       2.683773        73.0292 
 566   0.0000       2.691041        73.2269 
 567   0.0000       2.700195        73.4760 
 568   0.0000       2.709717        73.7351 
 569   0.0000       2.714525        73.8660 
 570   0.0000       2.717645        73.9509 
 571   0.0000       2.724462        74.1364 
 572   0.0000       2.726315        74.1868 
 573   0.0000       2.735381        74.4335 
 574   0.0000       2.738037        74.5058 
 575   0.0000       2.747227        74.7558 
 576   0.0000       2.749700        74.8231 
 577   0.0000       2.758255        75.0559 
 578   0.0000       2.762168        75.1624 
 579   0.0000       2.765998        75.2666 
 580   0.0000       2.780236        75.6541 
 581   0.0000       2.785215        75.7896 
 582   0.0000       2.788667        75.8835 
 583   0.0000       2.794506        76.0424 
 584   0.0000       2.798510        76.1513 
 585   0.0000       2.809673        76.4551 
 586   0.0000       2.820500        76.7497 
 587   0.0000       2.822832        76.8132 
 588   0.0000       2.825131        76.8757 
 589   0.0000       2.828083        76.9561 
 590   0.0000       2.837224        77.2048 
 591   0.0000       2.842463        77.3474 
 592   0.0000       2.847628        77.4879 
 593   0.0000       2.852996        77.6340 
 594   0.0000       2.864678        77.9519 
 595   0.0000       2.871007        78.1241 
 596   0.0000       2.872144        78.1550 
 597   0.0000       2.882781        78.4444 
 598   0.0000       2.884512        78.4916 
 599   0.0000       2.900444        78.9251 
 600   0.0000       2.908633        79.1479 
 601   0.0000       2.916339        79.3576 
 602   0.0000       2.920022        79.4578 
 603   0.0000       2.927104        79.6506 
 604   0.0000       2.933805        79.8329 
 605   0.0000       2.940806        80.0234 
 606   0.0000       2.944063        80.1120 
 607   0.0000       2.951879        80.3247 
 608   0.0000       2.961768        80.5938 
 609   0.0000       2.967016        80.7366 
 610   0.0000       2.976585        80.9970 
 611   0.0000       2.980168        81.0945 
 612   0.0000       2.983391        81.1822 
 613   0.0000       2.985705        81.2452 
 614   0.0000       2.990102        81.3648 
 615   0.0000       2.997472        81.5654 
 616   0.0000       3.000881        81.6581 
 617   0.0000       3.003745        81.7361 
 618   0.0000       3.007252        81.8315 
 619   0.0000       3.013580        82.0037 
 620   0.0000       3.015189        82.0475 
 621   0.0000       3.019263        82.1583 
 622   0.0000       3.021483        82.2187 
 623   0.0000       3.026446        82.3538 
 624   0.0000       3.035069        82.5884 
 625   0.0000       3.035774        82.6076 
 626   0.0000       3.044047        82.8327 
 627   0.0000       3.050754        83.0152 
 628   0.0000       3.057084        83.1875 
 629   0.0000       3.067170        83.4619 
 630   0.0000       3.070343        83.5483 
 631   0.0000       3.074823        83.6702 
 632   0.0000       3.079717        83.8034 
 633   0.0000       3.087184        84.0065 
 634   0.0000       3.093565        84.1802 
 635   0.0000       3.109967        84.6265 
 636   0.0000       3.113700        84.7281 
 637   0.0000       3.119756        84.8929 
 638   0.0000       3.124416        85.0197 
 639   0.0000       3.129062        85.1461 
 640   0.0000       3.132611        85.2427 
 641   0.0000       3.136844        85.3579 
 642   0.0000       3.142743        85.5184 
 643   0.0000       3.150887        85.7400 
 644   0.0000       3.153036        85.7985 
 645   0.0000       3.158540        85.9482 
 646   0.0000       3.160377        85.9982 
 647   0.0000       3.175295        86.4042 
 648   0.0000       3.177264        86.4578 
 649   0.0000       3.181605        86.5759 
 650   0.0000       3.188642        86.7674 
 651   0.0000       3.193351        86.8955 
 652   0.0000       3.198061        87.0237 
 653   0.0000       3.201186        87.1087 
 654   0.0000       3.205241        87.2190 
 655   0.0000       3.209588        87.3373 
 656   0.0000       3.219386        87.6039 
 657   0.0000       3.226829        87.8065 
 658   0.0000       3.228348        87.8478 
 659   0.0000       3.232201        87.9527 
 660   0.0000       3.233604        87.9908 
 661   0.0000       3.238728        88.1303 
 662   0.0000       3.244127        88.2772 
 663   0.0000       3.245904        88.3255 
 664   0.0000       3.255102        88.5758 
 665   0.0000       3.258913        88.6795 
 666   0.0000       3.262697        88.7825 
 667   0.0000       3.271219        89.0144 
 668   0.0000       3.275255        89.1242 
 669   0.0000       3.286582        89.4325 
 670   0.0000       3.288571        89.4866 
 671   0.0000       3.291265        89.5599 
 672   0.0000       3.297001        89.7160 
 673   0.0000       3.302083        89.8543 
 674   0.0000       3.309338        90.0517 
 675   0.0000       3.310341        90.0790 
 676   0.0000       3.315843        90.2287 
 677   0.0000       3.320901        90.3663 
 678   0.0000       3.324983        90.4774 
 679   0.0000       3.331528        90.6555 
 680   0.0000       3.334773        90.7438 
 681   0.0000       3.343772        90.9887 
 682   0.0000       3.355368        91.3042 
 683   0.0000       3.360532        91.4447 
 684   0.0000       3.364186        91.5441 
 685   0.0000       3.366368        91.6035 
 686   0.0000       3.370461        91.7149 
 687   0.0000       3.375235        91.8448 
 688   0.0000       3.380064        91.9762 
 689   0.0000       3.385969        92.1369 
 690   0.0000       3.392871        92.3247 
 691   0.0000       3.399676        92.5099 
 692   0.0000       3.404932        92.6529 
 693   0.0000       3.416377        92.9643 
 694   0.0000       3.424264        93.1790 
 695   0.0000       3.426475        93.2391 
 696   0.0000       3.435355        93.4808 
 697   0.0000       3.456477        94.0555 
 698   0.0000       3.460389        94.1620 
 699   0.0000       3.486572        94.8744 
 700   0.0000       3.490730        94.9876 
 701   0.0000       3.497258        95.1652 
 702   0.0000       3.503698        95.3405 
 703   0.0000       3.513430        95.6053 
 704   0.0000       3.522593        95.8546 
 705   0.0000       3.530858        96.0795 
 706   0.0000       3.547179        96.5236 
 707   0.0000       3.552919        96.6798 
 708   0.0000       3.556740        96.7838 
 709   0.0000       3.564767        97.0022 
 710   0.0000       3.569474        97.1303 
 711   0.0000       3.582191        97.4764 
 712   0.0000       3.587182        97.6122 
 713   0.0000       3.598564        97.9219 
 714   0.0000       3.604873        98.0936 
 715   0.0000       3.611278        98.2679 
 716   0.0000       3.622360        98.5694 
 717   0.0000       3.636645        98.9581 
 718   0.0000       3.667476        99.7971 
 719   0.0000       3.689418       100.3942 
 720   0.0000       3.703978       100.7904 
 721   0.0000       3.723419       101.3194 
[...]
      pz      :    -0.000007  p :    -0.000016
      px      :    -0.000006
      py      :    -0.000004
 13 H s       :    -0.000067  s :    -0.000067
      pz      :     0.000028  p :     0.000064
      px      :     0.000025
      py      :     0.000011
 14 H s       :     0.000070  s :     0.000070
      pz      :    -0.000008  p :    -0.000015
      px      :    -0.000006
      py      :    -0.000001
 15 C s       :     0.000276  s :     0.000276
      pz      :    -0.000465  p :    -0.000540
      px      :     0.000035
      py      :    -0.000111
      dz2     :     0.000217  d :     0.000483
      dxz     :     0.000047
      dyz     :     0.000062
      dx2y2   :     0.000076
      dxy     :     0.000081
      f0      :     0.000015  f :     0.000099
      f+1     :     0.000016
      f-1     :     0.000030
      f+2     :     0.000012
      f-2     :    -0.000027
      f+3     :     0.000057
      f-3     :    -0.000004
 16 C s       :     0.000557  s :     0.000557
      pz      :     0.002218  p :     0.004332
      px      :     0.001251
      py      :     0.000864
      dz2     :    -0.001022  d :    -0.003195
      dxz     :    -0.000521
      dyz     :    -0.000467
      dx2y2   :    -0.000744
      dxy     :    -0.000441
      f0      :    -0.000015  f :    -0.000429
      f+1     :    -0.000130
      f-1     :    -0.000002
      f+2     :    -0.000017
      f-2     :    -0.000130
      f+3     :    -0.000127
      f-3     :    -0.000008
 17 C s       :    -0.000138  s :    -0.000138
      pz      :    -0.001293  p :    -0.003138
      px      :    -0.000432
      py      :    -0.001413
      dz2     :     0.000280  d :     0.000621
      dxz     :     0.000089
      dyz     :     0.000042
      dx2y2   :     0.000019
      dxy     :     0.000190
      f0      :     0.000005  f :     0.000065
      f+1     :     0.000012
      f-1     :     0.000023
      f+2     :     0.000006
      f-2     :     0.000005
      f+3     :     0.000007
      f-3     :     0.000008
 18 C s       :     0.000051  s :     0.000051
      pz      :     0.001218  p :     0.001328
      px      :    -0.000055
      py      :     0.000164
      dz2     :    -0.000174  d :    -0.000273
      dxz     :    -0.000020
      dyz     :    -0.000020
      dx2y2   :    -0.000019
      dxy     :    -0.000040
      f0      :    -0.000001  f :    -0.000042
      f+1     :    -0.000009
      f-1     :    -0.000010
      f+2     :    -0.000005
      f-2     :    -0.000002
      f+3     :    -0.000008
      f-3     :    -0.000006
 19 C s       :    -0.000048  s :    -0.000048
      pz      :    -0.001153  p :    -0.001920
      px      :    -0.000207
      py      :    -0.000561
      dz2     :     0.000088  d :     0.000333
      dxz     :     0.000024
      dyz     :     0.000102
      dx2y2   :     0.000132
      dxy     :    -0.000013
      f0      :     0.000011  f :     0.000046
      f+1     :     0.000001
      f-1     :     0.000012
      f+2     :     0.000003
      f-2     :     0.000007
      f+3     :     0.000009
      f-3     :     0.000003
 20 H s       :    -0.000029  s :    -0.000029
      pz      :     0.000025  p :     0.000039
      px      :     0.000004
      py      :     0.000010
 21 C s       :     0.000061  s :     0.000061
      pz      :     0.001083  p :     0.001943
      px      :     0.000286
      py      :     0.000574
      dz2     :    -0.000056  d :    -0.000461
      dxz     :    -0.000092
      dyz     :    -0.000106
      dx2y2   :    -0.000063
      dxy     :    -0.000144
      f0      :    -0.000005  f :    -0.000053
      f+1     :    -0.000015
      f-1     :    -0.000001
      f+2     :    -0.000004
      f-2     :    -0.000005
      f+3     :    -0.000008
      f-3     :    -0.000014
 22 H s       :     0.000126  s :     0.000126
      pz      :    -0.000034  p :    -0.000080
      px      :    -0.000018
      py      :    -0.000027
 23 H s       :    -0.000001  s :    -0.000001
      pz      :    -0.000022  p :    -0.000043
      px      :    -0.000009
      py      :    -0.000013
 24 H s       :    -0.000176  s :    -0.000176
      pz      :     0.000031  p :     0.000054
      px      :     0.000006
      py      :     0.000016
 25 C s       :     0.001218  s :     0.001218
      pz      :     0.011953  p :     0.020856
      px      :     0.003370
      py      :     0.005533
      dz2     :     0.000962  d :    -0.000512
      dxz     :    -0.000990
      dyz     :    -0.000369
      dx2y2   :    -0.000947
      dxy     :     0.000833
      f0      :    -0.000034  f :    -0.000267
      f+1     :     0.000090
      f-1     :    -0.000030
      f+2     :    -0.000096
      f-2     :    -0.000074
      f+3     :    -0.000080
      f-3     :    -0.000042
 26 C s       :     0.000988  s :     0.000988
      pz      :     0.008317  p :     0.014979
      px      :     0.002330
      py      :     0.004332
      dz2     :     0.000901  d :     0.000646
      dxz     :    -0.000170
      dyz     :    -0.000023
      dx2y2   :    -0.000234
      dxy     :     0.000173
      f0      :     0.000092  f :     0.000133
      f+1     :     0.000177
      f-1     :    -0.000029
      f+2     :    -0.000015
      f-2     :    -0.000033
      f+3     :    -0.000067
      f-3     :     0.000007
 27 C s       :     0.000940  s :     0.000940
      pz      :     0.006366  p :     0.014324
      px      :     0.003891
      py      :     0.004067
      dz2     :    -0.000334  d :     0.000015
      dxz     :     0.000986
      dyz     :     0.000042
      dx2y2   :    -0.001073
      dxy     :     0.000393
      f0      :     0.000023  f :    -0.000237
      f+1     :    -0.000021
      f-1     :    -0.000023
      f+2     :    -0.000064
      f-2     :    -0.000135
      f+3     :    -0.000007
      f-3     :    -0.000010
 28 C s       :     0.000155  s :     0.000155
      pz      :     0.008636  p :     0.014261
      px      :     0.001036
      py      :     0.004589
      dz2     :     0.000489  d :     0.002487
      dxz     :     0.000528
      dyz     :     0.000295
      dx2y2   :     0.001133
      dxy     :     0.000042
      f0      :     0.000080  f :     0.000205
      f+1     :    -0.000000
      f-1     :    -0.000005
      f+2     :     0.000003
      f-2     :    -0.000012
      f+3     :     0.000141
      f-3     :    -0.000003
 29 H s       :    -0.000680  s :    -0.000680
      pz      :     0.000183  p :     0.000382
      px      :     0.000070
      py      :     0.000130
 30 C s       :     0.000082  s :     0.000082
      pz      :     0.005181  p :     0.009022
      px      :     0.001287
      py      :     0.002554
      dz2     :     0.001147  d :     0.003262
      dxz     :     0.001223
      dyz     :     0.000031
      dx2y2   :     0.000119
      dxy     :     0.000742
      f0      :     0.000134  f :     0.000317
      f+1     :    -0.000005
      f-1     :     0.000050
      f+2     :     0.000015
      f-2     :     0.000014
      f+3     :     0.000122
      f-3     :    -0.000014
 31 H s       :    -0.000238  s :    -0.000238
      pz      :     0.000117  p :     0.000268
      px      :     0.000038
      py      :     0.000113
 32 H s       :    -0.000664  s :    -0.000664
      pz      :     0.000248  p :     0.000459
      px      :     0.000097
      py      :     0.000114
 33 H s       :    -0.001848  s :    -0.001848
      pz      :     0.000255  p :     0.000567
      px      :     0.000108
      py      :     0.000203
 34 C s       :    -0.013364  s :    -0.013364
      pz      :    -0.082087  p :    -0.129364
      px      :    -0.017890
      py      :    -0.029388
      dz2     :     0.011143  d :     0.038616
      dxz     :     0.010728
      dyz     :     0.003430
      dx2y2   :     0.009143
      dxy     :     0.004173
      f0      :     0.001068  f :     0.003158
      f+1     :     0.000362
      f-1     :     0.000286
      f+2     :     0.000635
      f-2     :     0.000431
      f+3     :     0.000077
      f-3     :     0.000300
 35 H s       :     0.010626  s :     0.010626
      pz      :    -0.001451  p :    -0.002721
      px      :    -0.000708
      py      :    -0.000562
 36 H s       :     0.015107  s :     0.015107
      pz      :    -0.001751  p :    -0.002859
      px      :    -0.000260
      py      :    -0.000848
 37 H s       :     0.010912  s :     0.010912
      pz      :    -0.001440  p :    -0.002819
      px      :    -0.000436
      py      :    -0.000942
 38 C s       :    -0.000872  s :    -0.000872
      pz      :    -0.003339  p :    -0.017497
      px      :     0.000248
      py      :    -0.014406
      dz2     :     0.001033  d :     0.021745
      dxz     :     0.000457
      dyz     :     0.012313
      dx2y2   :     0.002443
      dxy     :     0.005498
      f0      :     0.000471  f :     0.002367
      f+1     :     0.000080
      f-1     :     0.000289
      f+2     :     0.000477
      f-2     :     0.000453
      f+3     :     0.000418
      f-3     :     0.000179
 39 C s       :     0.001346  s :     0.001346
      pz      :     0.007479  p :     0.059510
      px      :     0.001749
      py      :     0.050282
      dz2     :     0.000905  d :     0.005126
      dxz     :     0.000295
      dyz     :     0.000665
      dx2y2   :     0.001065
      dxy     :     0.002197
      f0      :     0.000015  f :     0.000331
      f+1     :     0.000003
      f-1     :     0.000122
      f+2     :     0.000015
      f-2     :     0.000082
      f+3     :     0.000037
      f-3     :     0.000057
 40 H s       :     0.003132  s :     0.003132
      pz      :    -0.000063  p :    -0.000346
      px      :    -0.000060
      py      :    -0.000223
 41 H s       :     0.003253  s :     0.003253
      pz      :    -0.000013  p :    -0.000327
      px      :     0.000019
      py      :    -0.000334
 42 H s       :    -0.000507  s :    -0.000507
      pz      :     0.000182  p :     0.001553
      px      :     0.000086
      py      :     0.001284
 43 H s       :    -0.000058  s :    -0.000058
      pz      :     0.000157  p :     0.001494
      px      :     0.000192
      py      :     0.001145


                      *****************************
                      * MAYER POPULATION ANALYSIS *
                      *****************************

  NA   - Mulliken gross atomic population
  ZA   - Total nuclear charge
  QA   - Mulliken gross atomic charge
  VA   - Mayer's total valence
  BVA  - Mayer's bonded valence
  FA   - Mayer's free valence

  ATOM       NA         ZA         QA         VA         BVA        FA
  0 Cr    23.6130    24.0000     0.3870     6.4482     3.8745     2.5737
  1 O      8.2833     8.0000    -0.2833     2.0565     2.0559     0.0006
  2 N      7.1222     7.0000    -0.1222     3.2233     3.2186     0.0047
  3 N      7.1143     7.0000    -0.1143     3.1990     3.1932     0.0059
  4 C      5.7658     6.0000     0.2342     3.4660     3.4656     0.0004
  5 C      6.2144     6.0000    -0.2144     4.0226     4.0226     0.0001
  6 C      6.2333     6.0000    -0.2333     4.0307     4.0307     0.0000
  7 C      6.0997     6.0000    -0.0997     3.8550     3.8550     0.0000
  8 H      0.8272     1.0000     0.1728     0.9681     0.9681     0.0000
  9 C      6.1003     6.0000    -0.1003     3.8566     3.8566     0.0000
 10 H      0.8138     1.0000     0.1862     0.9631     0.9631     0.0000
 11 C      6.1245     6.0000    -0.1245     3.8728     3.8728     0.0000
 12 H      0.8434     1.0000     0.1566     0.9616     0.9616    -0.0000
 13 H      0.8447     1.0000     0.1553     0.9613     0.9613     0.0000
 14 H      0.8425     1.0000     0.1575     0.9619     0.9619     0.0000
 15 C      5.6835     6.0000     0.3165     3.6879     3.6878     0.0000
 16 C      5.9009     6.0000     0.0991     3.9769     3.9769     0.0000
 17 C      6.2113     6.0000    -0.2113     3.8776     3.8776     0.0000
 18 C      6.1846     6.0000    -0.1846     3.8745     3.8745     0.0000
 19 C      6.1393     6.0000    -0.1393     3.8907     3.8906     0.0000
 20 H      0.8183     1.0000     0.1817     0.9606     0.9606     0.0000
 21 C      6.1494     6.0000    -0.1494     3.9097     3.9096     0.0000
 22 H      0.8494     1.0000     0.1506     0.9745     0.9745     0.0000
 23 H      0.8451     1.0000     0.1549     0.9620     0.9620     0.0000
 24 H      0.8481     1.0000     0.1519     0.9621     0.9621     0.0000
 25 C      6.0740     6.0000    -0.0740     4.0582     4.0575     0.0006
 26 C      5.7497     6.0000     0.2503     3.5695     3.5690     0.0005
 27 C      6.1837     6.0000    -0.1837     3.9792     3.9788     0.0004
 28 C      6.0966     6.0000    -0.0966     3.8080     3.8077     0.0003
 29 H      0.8280     1.0000     0.1720     0.9666     0.9666     0.0000
 30 C      6.2703     6.0000    -0.2703     3.9355     3.9353     0.0002
 31 H      0.8433     1.0000     0.1567     0.9700     0.9700     0.0000
 32 H      0.8402     1.0000     0.1598     0.9669     0.9669     0.0000
 33 H      0.8363     1.0000     0.1637     0.9683     0.9683     0.0000
 34 C      6.5869     6.0000    -0.5869     3.8184     3.7775     0.0408
 35 H      0.8367     1.0000     0.1633     0.9695     0.9692     0.0003
 36 H      0.8429     1.0000     0.1571     0.9775     0.9768     0.0007
 37 H      0.8385     1.0000     0.1615     0.9565     0.9562     0.0003
 38 C      6.2729     6.0000    -0.2729     3.8123     3.8100     0.0023
 39 C      6.1825     6.0000    -0.1825     3.7743     3.7702     0.0041
 40 H      0.8085     1.0000     0.1915     0.9707     0.9707     0.0000
 41 H      0.8184     1.0000     0.1816     0.9793     0.9793     0.0000
 42 H      0.8247     1.0000     0.1753     0.9783     0.9782     0.0000
 43 H      0.7940     1.0000     0.2060     0.9545     0.9545     0.0000

  Mayer bond orders larger than 0.100000
B(  0-Cr,  1-O ) :   0.4135 B(  0-Cr,  2-N ) :   0.7272 B(  0-Cr,  3-N ) :   0.7752 
B(  0-Cr, 34-C ) :   0.9947 B(  0-Cr, 38-C ) :   0.3468 B(  0-Cr, 39-C ) :   0.2910 
B(  1-O ,  4-C ) :   0.6169 B(  1-O , 15-C ) :   0.7412 B(  1-O , 16-C ) :   0.1524 
B(  2-N , 16-C ) :   1.0032 B(  2-N , 25-C ) :   1.4164 B(  3-N , 26-C ) :   0.9753 
B(  3-N , 27-C ) :   1.3404 B(  4-C ,  5-C ) :   1.3990 B(  4-C ,  6-C ) :   1.3883 
B(  5-C ,  7-C ) :   1.3746 B(  5-C ,  8-H ) :   0.9583 B(  6-C ,  9-C ) :   1.3840 
B(  6-C , 10-H ) :   0.9517 B(  7-C , 11-C ) :   1.3814 B(  7-C , 12-H ) :   0.9620 
B(  9-C , 11-C ) :   1.3738 B(  9-C , 14-H ) :   0.9616 B( 11-C , 13-H ) :   0.9645 
B( 15-C , 16-C ) :   1.3625 B( 15-C , 18-C ) :   1.4004 B( 16-C , 17-C ) :   1.2997 
B( 17-C , 21-C ) :   1.4020 B( 17-C , 22-H ) :   0.9641 B( 18-C , 19-C ) :   1.3685 
B( 18-C , 20-H ) :   0.9364 B( 19-C , 21-C ) :   1.3860 B( 19-C , 23-H ) :   0.9649 
B( 21-C , 24-H ) :   0.9674 B( 25-C , 26-C ) :   1.3346 B( 25-C , 33-H ) :   0.9231 
B( 26-C , 30-C ) :   1.2381 B( 27-C , 28-C ) :   1.3462 B( 27-C , 29-H ) :   0.9477 
B( 28-C , 30-C ) :   1.4303 B( 28-C , 32-H ) :   0.9659 B( 30-C , 31-H ) :   0.9859 
B( 34-C , 35-H ) :   0.9437 B( 34-C , 36-H ) :   0.9365 B( 34-C , 37-H ) :   0.9292 
B( 38-C , 39-C ) :   1.5657 B( 38-C , 40-H ) :   0.9376 B( 38-C , 41-H ) :   0.9337 
B( 39-C , 42-H ) :   0.9426 B( 39-C , 43-H ) :   0.9411 

-------
TIMINGS
-------

Total SCF time: 0 days 0 hours 7 min 27 sec 

Total time                  ....     447.889 sec
Sum of individual times     ....     445.572 sec  ( 99.5%)

Fock matrix formation       ....     408.327 sec  ( 91.2%)
  Split-RI-J                ....      77.076 sec  ( 18.9% of F)
  XC integration            ....     259.631 sec  ( 63.6% of F)
    Basis function eval.    ....      53.383 sec  ( 20.6% of XC)
    Density eval.           ....     110.883 sec  ( 42.7% of XC)
    XC-Functional eval.     ....       6.165 sec  (  2.4% of XC)
    XC-Potential eval.      ....      85.291 sec  ( 32.9% of XC)
Diagonalization             ....       4.705 sec  (  1.1%)
Density matrix formation    ....       0.520 sec  (  0.1%)
Population analysis         ....       0.253 sec  (  0.1%)
Initial guess               ....       0.535 sec  (  0.1%)
Orbital Transformation      ....       0.000 sec  (  0.0%)
Orbital Orthonormalization  ....       0.000 sec  (  0.0%)
DIIS solution               ....       1.823 sec  (  0.4%)
Grid generation             ....      29.409 sec  (  6.6%)


-------------------------------------------------------------------------------
                          DFT DISPERSION CORRECTION                            
                                                                               
                              DFTD3 V3.1  Rev 1                                
                          USING Becke-Johnson damping                          
-------------------------------------------------------------------------------
The BP86 functional is recognized
Active option DFTDOPT                   ...         4   

molecular C6(AA) [au] = 25678.802875 


            DFT-D V3
 parameters
 s6 scaling factor         :     1.0000 
 a1 scaling factor         :     0.3946 
 s8 scaling factor         :     3.2822 
 a2 scaling factor         :     4.8516 
 ad hoc parameters k1-k3   :    16.0000     1.3333    -4.0000 

 Edisp/kcal,au: -70.674948172420  -0.112627686999 
 E6   /kcal   : -25.394964723 
 E8   /kcal   : -45.279983450 
 % E8         :  64.067940084 

-------------------------   ----------------
Dispersion correction           -0.112627687
-------------------------   ----------------


-------------------------   --------------------
FINAL SINGLE POINT ENERGY     -2003.860450762772
-------------------------   --------------------


                            ***************************************
                            *     ORCA property calculations      *
                            ***************************************

                                    ---------------------
                                    Active property flags
                                    ---------------------
   (+) Dipole Moment


------------------------------------------------------------------------------
                       ORCA ELECTRIC PROPERTIES CALCULATION
------------------------------------------------------------------------------

Dipole Moment Calculation                       ... on
Quadrupole Moment Calculation                   ... off
Polarizability Calculation                      ... off
GBWName                                         ... IM1_2F-1_Solv-1.gbw
Electron density file                           ... IM1_2F-1_Solv-1.scfp
The origin for moment calculation is the CENTER OF MASS  = (-0.968825, -3.290986 -1.534703)

-------------
DIPOLE MOMENT
-------------
                                X             Y             Z
Electronic contribution:      7.40542       2.17698       4.98945
Nuclear contribution   :     -7.46110      -2.99775      -5.02024
                        -----------------------------------------
Total Dipole Moment    :     -0.05568      -0.82077      -0.03080
                        -----------------------------------------
Magnitude (a.u.)       :      0.82323
Magnitude (Debye)      :      2.09249



--------------------
Rotational spectrum 
--------------------
 
Rotational constants in cm-1:     0.011142     0.006552     0.004524 
Rotational constants in MHz :   334.015795   196.421538   135.626381 

 Dipole components along the rotational axes: 
x,y,z [a.u.] :    -0.291577    -0.645513     0.419532 
x,y,z [Debye]:    -0.741130    -1.640763     1.066365 

 

Timings for individual modules:

Sum of individual times         ...      448.624 sec (=   7.477 min)
GTO integral calculation        ...        0.721 sec (=   0.012 min)   0.2 %
SCF iterations                  ...      447.903 sec (=   7.465 min)  99.8 %
                             ****ORCA TERMINATED NORMALLY****
TOTAL RUN TIME: 0 days 0 hours 7 minutes 29 seconds 206 msec
