
                                 *****************
                                 * O   R   C   A *
                                 *****************

           --- An Ab Initio, DFT and Semiempirical electronic structure package ---

                  #######################################################
                  #                        -***-                        #
                  #          Department of theory and spectroscopy      #
                  #               Directorship: Frank Neese             #
                  #        Max Planck Institute fuer Kohlenforschung    #
                  #                Kaiser Wilhelm Platz 1               #
                  #                 D-45470 Muelheim/Ruhr               #
                  #                      Germany                        #
                  #                                                     #
                  #                  All rights reserved                #
                  #                        -***-                        #
                  #######################################################


                         Program Version 4.2.1 -  RELEASE  -


 With contributions from (in alphabetic order):
   Daniel Aravena         : Magnetic Suceptibility
   Michael Atanasov       : Ab Initio Ligand Field Theory (pilot matlab implementation)
   Alexander A. Auer      : GIAO ZORA, VPT2
   Ute Becker             : Parallelization
   Giovanni Bistoni       : ED, misc. LED, open-shell LED, HFLD
   Martin Brehm           : Molecular dynamics
   Dmytro Bykov           : SCF Hessian
   Vijay G. Chilkuri      : MRCI spin determinant printing, contributions to CSF-ICE
   Dipayan Datta          : RHF DLPNO-CCSD density
   Achintya Kumar Dutta   : EOM-CC, STEOM-CC
   Dmitry Ganyushin       : Spin-Orbit,Spin-Spin,Magnetic field MRCI
   Miquel Garcia          : C-PCM Hessian, Gaussian charge scheme
   Yang Guo               : DLPNO-NEVPT2, CIM, IAO-localization
   Andreas Hansen         : Spin unrestricted coupled pair/coupled cluster methods
   Benjamin Helmich-Paris : CASSCF linear response (MC-RPA)
   Lee Huntington         : MR-EOM, pCC
   Robert Izsak           : Overlap fitted RIJCOSX, COSX-SCS-MP3, EOM
   Christian Kollmar      : KDIIS, OOCD, Brueckner-CCSD(T), CCSD density
   Simone Kossmann        : Meta GGA functionals, TD-DFT gradient, OOMP2, MP2 Hessian
   Martin Krupicka        : AUTO-CI
   Lucas Lang             : DCDCAS
   Dagmar Lenk            : GEPOL surface, SMD
   Dimitrios Liakos       : Extrapolation schemes; Compound Job, initial MDCI parallelization
   Dimitrios Manganas     : Further ROCIS development; embedding schemes
   Dimitrios Pantazis     : SARC Basis sets
   Taras Petrenko         : DFT Hessian,TD-DFT gradient, ASA, ECA, R-Raman, ABS, FL, XAS/XES, NRVS
   Peter Pinski           : DLPNO-MP2, DLPNO-MP2 Gradient
   Christoph Reimann      : Effective Core Potentials
   Marius Retegan         : Local ZFS, SOC
   Christoph Riplinger    : Optimizer, TS searches, QM/MM, DLPNO-CCSD(T), (RO)-DLPNO pert. Triples
   Tobias Risthaus        : Range-separated hybrids, TD-DFT gradient, RPA, STAB
   Michael Roemelt        : Original ROCIS implementation
   Masaaki Saitow         : Open-shell DLPNO-CCSD energy and density
   Barbara Sandhoefer     : DKH picture change effects
   Avijit Sen             : IP-ROCIS
   Kantharuban Sivalingam : CASSCF convergence, NEVPT2, FIC-MRCI
   Bernardo de Souza      : ESD, SOC TD-DFT
   Georgi Stoychev        : AutoAux, RI-MP2 NMR
   Willem Van den Heuvel  : Paramagnetic NMR
   Boris Wezisla          : Elementary symmetry handling
   Frank Wennmohs         : Technical directorship


 We gratefully acknowledge several colleagues who have allowed us to
 interface, adapt or use parts of their codes:
   Stefan Grimme, W. Hujo, H. Kruse,             : VdW corrections, initial TS optimization,
                  C. Bannwarth                     DFT functionals, gCP, sTDA/sTD-DF
   Ed Valeev, F. Pavosevic, A. Kumar             : LibInt (2-el integral package), F12 methods
   Garnet Chan, S. Sharma, J. Yang, R. Olivares  : DMRG
   Ulf Ekstrom                                   : XCFun DFT Library
   Mihaly Kallay                                 : mrcc  (arbitrary order and MRCC methods)
   Andreas Klamt, Michael Diedenhofen            : otool_cosmo (COSMO solvation model)
   Jiri Pittner, Ondrej Demel                    : Mk-CCSD
   Frank Weinhold                                : gennbo (NPA and NBO analysis)
   Christopher J. Cramer and Donald G. Truhlar   : smd solvation model
   Lars Goerigk                                  : TD-DFT with DH, B97 family of functionals
   V. Asgeirsson, H. Jonsson                     : NEB implementation
   FAccTs GmbH                                   : IRC, NEB, NEB-TS, Multilevel, MM, QM/MM, CI optimization
   S Lehtola, MJT Oliveira, MAL Marques          : LibXC Library


 Your calculation uses the libint2 library for the computation of 2-el integrals
 For citations please refer to: http://libint.valeyev.net

 Your ORCA version has been built with support for libXC version: 4.2.3
 For citations please refer to: https://tddft.org/programs/libxc/

 This ORCA versions uses:
   CBLAS   interface :  Fast vector & matrix operations
   LAPACKE interface :  Fast linear algebra routines
   SCALAPACK package :  Parallel linear algebra routines


Your calculation utilizes the atom-pairwise dispersion correction
with the Becke-Johnson damping scheme (D3BJ)
Cite in your paper:
S.Grimme, S.Ehrlich, L.Goerigk, J Comput Chem, (2011), 32, 1456–1465 
S.Grimme, J.Antony, S.Ehrlich and H.Krieg, J.Chem.Phys., 132, (2010), 154104 
   

----- Orbital basis set information -----
Your calculation utilizes the basis: def2-TZVP
   F. Weigend and R. Ahlrichs, Phys. Chem. Chem. Phys. 7, 3297 (2005).

----- AuxJ basis set information -----
Your calculation utilizes the auxiliary basis: def2/J
   F. Weigend, Phys. Chem. Chem. Phys. 8, 1057 (2006).

================================================================================
                                        WARNINGS
                       Please study these warnings very carefully!
================================================================================


WARNING: your system is open-shell and RHF/RKS was chosen
  ===> : WILL SWITCH to UHF/UKS


INFO   : the flag for use of LIBINT has been found!

================================================================================
                                       INPUT FILE
================================================================================
NAME = Cr2A_Freq2.inp
|  1> #
|  2> # ORCA calc attempt 1 :-)
|  3> #
|  4> ! BP86 D3BJ RIJCOSX def2-TZVP def2/J Grid6 FinalGrid6 MORead Freq 
|  5> %moinp "Cr2A_Tight.ges"
|  6> * xyz 1 4
|  7>   Cr  0.10144799434959     -2.18018613423685     -1.44724959538178
|  8>   O   -1.64016133391648     -2.22208642844092     -0.34569451628123
|  9>   N   0.41196163070254     -0.69395928856028     -0.24528364874298
| 10>   N   2.00959197371174     -1.94863883909233     -1.86804865611078
| 11>   C   -2.78486252267200     -2.90962053706220     -0.84050022468711
| 12>   C   -2.79678197046669     -4.29011197293731     -0.67955374903593
| 13>   C   -3.78503022154948     -2.21548299584227     -1.51459124765720
| 14>   C   -3.86062476550914     -5.01061452562067     -1.23153752786670
| 15>   H   -2.00169395363613     -4.78453515842185     -0.12035329971675
| 16>   C   -4.84488525914191     -2.95050765140527     -2.04858393942947
| 17>   H   -3.74101303957401     -1.13119473918277     -1.61171505978924
| 18>   C   -4.88076704671162     -4.34243220985051     -1.91202333041252
| 19>   H   -3.89316514629078     -6.09375489645344     -1.11644894957301
| 20>   H   -5.71118541360073     -4.90692427785236     -2.33534265248841
| 21>   H   -5.64232704779778     -2.43116279580468     -2.57976588213998
| 22>   C   -1.78908336048128     -1.10451803544352      0.51686694195038
| 23>   C   -0.64949790895446     -0.28369330699798      0.57066008152491
| 24>   C   -0.66933751036254      0.82766796311767      1.42391545819153
| 25>   C   -2.91796169110874     -0.87336055459970      1.28274645089380
| 26>   C   -2.91852275608065      0.24192473233208      2.12839203681394
| 27>   H   -3.77561234495212     -1.54191598343209      1.22690166124381
| 28>   C   -1.80429206974907      1.08419843392370      2.19297153360991
| 29>   H   0.19251216262255      1.49168960033490      1.48174402583840
| 30>   H   -3.79652097382438      0.44713935081409      2.73945419880493
| 31>   H   -1.81795737073580      1.95248260904556      2.85085823991480
| 32>   C   1.65478729870800     -0.20184206849547     -0.29797597005983
| 33>   C   2.53526350303830     -0.84587144127715     -1.16877496214519
| 34>   C   3.00884662811683     -2.43615553556914     -2.63974794338110
| 35>   C   4.18820939643496     -1.67996096009493     -2.45516491379123
| 36>   H   2.85470517502304     -3.29167319009914     -3.29313086121077
| 37>   C   3.89351888944621     -0.67590281339086     -1.53048555481523
| 38>   H   4.56682737565445      0.08616739509644     -1.14917533084533
| 39>   H   5.13834248527415     -1.85890570100360     -2.94814136368914
| 40>   H   1.95466779167100      0.64574245749044      0.32210255993880
| 41>   C   -0.66345853434921     -1.51591157752773     -3.14820252712893
| 42>   H   0.01182692551524     -0.84181650874107     -3.68663955453235
| 43>   H   -1.65766932692809     -1.07129067821733     -3.01450573969183
| 44>   H   -0.75511766187546     -2.47798173650133     -3.69642618812111
| 45> *
| 46> 
| 47>                          ****END OF INPUT****
================================================================================

                       ****************************
                       * Single Point Calculation *
                       ****************************

---------------------------------
CARTESIAN COORDINATES (ANGSTROEM)
---------------------------------
  Cr     0.101448   -2.180186   -1.447250
  O     -1.640161   -2.222086   -0.345695
  N      0.411962   -0.693959   -0.245284
  N      2.009592   -1.948639   -1.868049
  C     -2.784863   -2.909621   -0.840500
  C     -2.796782   -4.290112   -0.679554
  C     -3.785030   -2.215483   -1.514591
  C     -3.860625   -5.010615   -1.231538
  H     -2.001694   -4.784535   -0.120353
  C     -4.844885   -2.950508   -2.048584
  H     -3.741013   -1.131195   -1.611715
  C     -4.880767   -4.342432   -1.912023
  H     -3.893165   -6.093755   -1.116449
  H     -5.711185   -4.906924   -2.335343
  H     -5.642327   -2.431163   -2.579766
  C     -1.789083   -1.104518    0.516867
  C     -0.649498   -0.283693    0.570660
  C     -0.669338    0.827668    1.423915
  C     -2.917962   -0.873361    1.282746
  C     -2.918523    0.241925    2.128392
  H     -3.775612   -1.541916    1.226902
  C     -1.804292    1.084198    2.192972
  H      0.192512    1.491690    1.481744
  H     -3.796521    0.447139    2.739454
  H     -1.817957    1.952483    2.850858
  C      1.654787   -0.201842   -0.297976
  C      2.535264   -0.845871   -1.168775
  C      3.008847   -2.436156   -2.639748
  C      4.188209   -1.679961   -2.455165
  H      2.854705   -3.291673   -3.293131
  C      3.893519   -0.675903   -1.530486
  H      4.566827    0.086167   -1.149175
  H      5.138342   -1.858906   -2.948141
  H      1.954668    0.645742    0.322103
  C     -0.663459   -1.515912   -3.148203
  H      0.011827   -0.841817   -3.686640
  H     -1.657669   -1.071291   -3.014506
  H     -0.755118   -2.477982   -3.696426

----------------------------
CARTESIAN COORDINATES (A.U.)
----------------------------
  NO LB      ZA    FRAG     MASS         X           Y           Z
   0 Cr   24.0000    0    52.000    0.191709   -4.119955   -2.734905
   1 O     8.0000    0    15.999   -3.099456   -4.199135   -0.653268
   2 N     7.0000    0    14.007    0.778495   -1.311393   -0.463519
   3 N     7.0000    0    14.007    3.797578   -3.682394   -3.530100
   4 C     6.0000    0    12.011   -5.262627   -5.498386   -1.588315
   5 C     6.0000    0    12.011   -5.285152   -8.107137   -1.284170
   6 C     6.0000    0    12.011   -7.152671   -4.186656   -2.862163
   7 C     6.0000    0    12.011   -7.295524   -9.468689   -2.327269
   8 H     1.0000    0     1.008   -3.782653   -9.041461   -0.227435
   9 C     6.0000    0    12.011   -9.155506   -5.575651   -3.871263
  10 H     1.0000    0     1.008   -7.069490   -2.137648   -3.045700
  11 C     6.0000    0    12.011   -9.223313   -8.206008   -3.613200
  12 H     1.0000    0     1.008   -7.357016  -11.515528   -2.109783
  13 H     1.0000    0     1.008  -10.792576   -9.272743   -4.413158
  14 H     1.0000    0     1.008  -10.662453   -4.594232   -4.875051
  15 C     6.0000    0    12.011   -3.380878   -2.087237    0.976737
  16 C     6.0000    0    12.011   -1.227373   -0.536103    1.078391
  17 C     6.0000    0    12.011   -1.264865    1.564066    2.690810
  18 C     6.0000    0    12.011   -5.514148   -1.650412    2.424039
  19 C     6.0000    0    12.011   -5.515209    0.457171    4.022078
  20 H     1.0000    0     1.008   -7.134873   -2.913799    2.318508
  21 C     6.0000    0    12.011   -3.409618    2.048838    4.144116
  22 H     1.0000    0     1.008    0.363795    2.818885    2.800090
  23 H     1.0000    0     1.008   -7.174385    0.844971    5.176818
  24 H     1.0000    0     1.008   -3.435442    3.689657    5.387341
  25 C     6.0000    0    12.011    3.127095   -0.381426   -0.563093
  26 C     6.0000    0    12.011    4.790954   -1.598465   -2.208665
  27 C     6.0000    0    12.011    5.685896   -4.603667   -4.988401
  28 C     6.0000    0    12.011    7.914569   -3.174666   -4.639589
  29 H     1.0000    0     1.008    5.394611   -6.220361   -6.223115
  30 C     6.0000    0    12.011    7.357684   -1.277271   -2.892199
  31 H     1.0000    0     1.008    8.630053    0.162833   -2.171627
  32 H     1.0000    0     1.008    9.710060   -3.512823   -5.571180
  33 H     1.0000    0     1.008    3.693787    1.220276    0.608686
  34 C     6.0000    0    12.011   -1.253755   -2.864658   -5.949241
  35 H     1.0000    0     1.008    0.022350   -1.590803   -6.966739
  36 H     1.0000    0     1.008   -3.132541   -2.024446   -5.696590
  37 H     1.0000    0     1.008   -1.426966   -4.682707   -6.985233

--------------------------------
INTERNAL COORDINATES (ANGSTROEM)
--------------------------------
 Cr     0   0   0     0.000000000000     0.00000000     0.00000000
 O      1   0   0     2.061160420552     0.00000000     0.00000000
 N      1   2   0     1.936494537057    79.59363506     0.00000000
 N      1   2   3     1.967663448198   159.40514014    35.35807405
 C      2   1   3     1.424035340547   120.22095578   161.51461619
 C      5   2   1     1.389892961988   116.50006178    79.92614694
 C      5   2   1     1.391603772364   120.34606110   263.53411791
 C      6   5   2     1.398417503137   118.20048765   184.21201254
 H      6   5   2     1.090561499124   120.22676584     5.29405500
 C      7   5   2     1.395959218553   117.92581526   176.20281700
 H      7   5   2     1.089518962993   120.70073016   355.68326773
 C      8   6   5     1.396502348180   120.10217392   359.42069107
 H      8   6   5     1.089723506291   119.54742882   180.14182783
 H     12   8   6     1.089699595002   119.87573967   180.37980164
 H     10   7   5     1.089856294011   119.40995187   179.89164340
 C      2   1   3     1.419559492325   113.41420399     8.45118386
 C      3   1   2     1.400278079854   117.70971813   351.86101367
 C     17   3   1     1.401271644010   126.72108670   185.51199627
 C     16   2   1     1.383608141249   123.60501405   175.46970653
 C     19  16   2     1.399634967778   117.89781627   177.77364882
 H     19  16   2     1.088875404254   120.77517958   357.87034072
 C     18  17   3     1.394767715952   119.54716092   181.22806416
 H     18  17   3     1.089519957024   120.29750582     1.66825928
 H     20  19  16     1.089215715925   119.30180042   179.82766734
 H     22  18  17     1.089458153189   119.32447022   180.34833857
 C      3   1   2     1.337748661021   114.00748152   170.84745454
 C     26   3   1     1.395816271582   116.15973878   358.31907986
 C      4   1   2     1.353403924801   142.70669256   145.93982972
 C     28   4   1     1.413080914203   110.42398549   176.55368368
 H     28   4   1     1.087464611878   121.42083373   356.86543395
 C     29  28   4     1.396426573003   107.16615653   359.66260129
 H     31  29  28     1.086044569605   127.31444314   179.64807865
 H     29  28   4     1.085264892531   125.66963477   179.67834457
 H     26   3   1     1.092165382218   121.21270576   179.26004777
 C      1   2   3     1.979793817638    98.02039562   251.28419924
 H     35   1   2     1.095595293229   112.98833667   144.42895131
 H     35   1   2     1.097277392073   112.41671584    16.93749873
 H     35   1   2     1.111093861435    99.51249939   260.96702684

---------------------------
INTERNAL COORDINATES (A.U.)
---------------------------
 Cr     0   0   0     0.000000000000     0.00000000     0.00000000
 O      1   0   0     3.895028712921     0.00000000     0.00000000
 N      1   2   0     3.659444334872    79.59363506     0.00000000
 N      1   2   3     3.718345040822   159.40514014    35.35807405
 C      2   1   3     2.691036798659   120.22095578   161.51461619
 C      5   2   1     2.626517053623   116.50006178    79.92614694
 C      5   2   1     2.629750016700   120.34606110   263.53411791
 C      6   5   2     2.642626101810   118.20048765   184.21201254
 H      6   5   2     2.060862565542   120.22676584     5.29405500
 C      7   5   2     2.637980617187   117.92581526   176.20281700
 H      7   5   2     2.058892457771   120.70073016   355.68326773
 C      8   6   5     2.639006983438   120.10217392   359.42069107
 H      8   6   5     2.059278988586   119.54742882   180.14182783
 H     12   8   6     2.059233802798   119.87573967   180.37980164
 H     10   7   5     2.059529921011   119.40995187   179.89164340
 C      2   1   3     2.682578671302   113.41420399     8.45118386
 C      3   1   2     2.646142082257   117.70971813   351.86101367
 C     17   3   1     2.648019646409   126.72108670   185.51199627
 C     16   2   1     2.614640463624   123.60501405   175.46970653
 C     19  16   2     2.644926776560   117.89781627   177.77364882
 H     19  16   2     2.057676308004   120.77517958   357.87034072
 C     18  17   3     2.635729003584   119.54716092   181.22806416
 H     18  17   3     2.058894336217   120.29750582     1.66825928
 H     20  19  16     2.058319403860   119.30180042   179.82766734
 H     22  18  17     2.058777543896   119.32447022   180.34833857
 C      3   1   2     2.527978605349   114.00748152   170.84745454
 C     26   3   1     2.637710486562   116.15973878   358.31907986
 C      4   1   2     2.557562766449   142.70669256   145.93982972
 C     28   4   1     2.670335932914   110.42398549   176.55368368
 H     28   4   1     2.055010296780   121.42083373   356.86543395
 C     29  28   4     2.638863789105   107.16615653   359.66260129
 H     31  29  28     2.052326805785   127.31444314   179.64807865
 H     29  28   4     2.050853429643   125.66963477   179.67834457
 H     26   3   1     2.063893465342   121.21270576   179.26004777
 C      1   2   3     3.741268116966    98.02039562   251.28419924
 H     35   1   2     2.070375057816   112.98833667   144.42895131
 H     35   1   2     2.073553763962   112.41671584    16.93749873
 H     35   1   2     2.099663107193    99.51249939   260.96702684

---------------------
BASIS SET INFORMATION
---------------------
There are 5 groups of distinct atoms

 Group   1 Type Cr  : 17s11p7d1f contracted to 6s4p4d1f pattern {842111/6311/4111/1}
 Group   2 Type O   : 11s6p2d1f contracted to 5s3p2d1f pattern {62111/411/11/1}
 Group   3 Type N   : 11s6p2d1f contracted to 5s3p2d1f pattern {62111/411/11/1}
 Group   4 Type C   : 11s6p2d1f contracted to 5s3p2d1f pattern {62111/411/11/1}
 Group   5 Type H   : 5s1p contracted to 3s1p pattern {311/1}

Atom   0Cr   basis set group =>   1
Atom   1O    basis set group =>   2
Atom   2N    basis set group =>   3
Atom   3N    basis set group =>   3
Atom   4C    basis set group =>   4
Atom   5C    basis set group =>   4
Atom   6C    basis set group =>   4
Atom   7C    basis set group =>   4
Atom   8H    basis set group =>   5
Atom   9C    basis set group =>   4
Atom  10H    basis set group =>   5
Atom  11C    basis set group =>   4
Atom  12H    basis set group =>   5
Atom  13H    basis set group =>   5
Atom  14H    basis set group =>   5
Atom  15C    basis set group =>   4
Atom  16C    basis set group =>   4
Atom  17C    basis set group =>   4
Atom  18C    basis set group =>   4
Atom  19C    basis set group =>   4
Atom  20H    basis set group =>   5
Atom  21C    basis set group =>   4
Atom  22H    basis set group =>   5
Atom  23H    basis set group =>   5
Atom  24H    basis set group =>   5
Atom  25C    basis set group =>   4
Atom  26C    basis set group =>   4
Atom  27C    basis set group =>   4
Atom  28C    basis set group =>   4
Atom  29H    basis set group =>   5
Atom  30C    basis set group =>   4
Atom  31H    basis set group =>   5
Atom  32H    basis set group =>   5
Atom  33H    basis set group =>   5
Atom  34C    basis set group =>   4
Atom  35H    basis set group =>   5
Atom  36H    basis set group =>   5
Atom  37H    basis set group =>   5
---------------------------------
AUXILIARY/J BASIS SET INFORMATION
---------------------------------
There are 5 groups of distinct atoms

 Group   1 Type Cr  : 19s5p5d3f3g contracted to 8s5p5d2f3g pattern {121111111/11111/11111/21/111}
 Group   2 Type O   : 12s5p4d2f1g contracted to 6s4p3d1f1g pattern {711111/2111/211/2/1}
 Group   3 Type N   : 12s5p4d2f1g contracted to 6s4p3d1f1g pattern {711111/2111/211/2/1}
 Group   4 Type C   : 12s5p4d2f1g contracted to 6s4p3d1f1g pattern {711111/2111/211/2/1}
 Group   5 Type H   : 5s2p1d contracted to 3s1p1d pattern {311/2/1}

Atom   0Cr   basis set group =>   1
Atom   1O    basis set group =>   2
Atom   2N    basis set group =>   3
Atom   3N    basis set group =>   3
Atom   4C    basis set group =>   4
Atom   5C    basis set group =>   4
Atom   6C    basis set group =>   4
Atom   7C    basis set group =>   4
Atom   8H    basis set group =>   5
Atom   9C    basis set group =>   4
Atom  10H    basis set group =>   5
Atom  11C    basis set group =>   4
Atom  12H    basis set group =>   5
Atom  13H    basis set group =>   5
Atom  14H    basis set group =>   5
Atom  15C    basis set group =>   4
Atom  16C    basis set group =>   4
Atom  17C    basis set group =>   4
Atom  18C    basis set group =>   4
Atom  19C    basis set group =>   4
Atom  20H    basis set group =>   5
Atom  21C    basis set group =>   4
Atom  22H    basis set group =>   5
Atom  23H    basis set group =>   5
Atom  24H    basis set group =>   5
Atom  25C    basis set group =>   4
Atom  26C    basis set group =>   4
Atom  27C    basis set group =>   4
Atom  28C    basis set group =>   4
Atom  29H    basis set group =>   5
Atom  30C    basis set group =>   4
Atom  31H    basis set group =>   5
Atom  32H    basis set group =>   5
Atom  33H    basis set group =>   5
Atom  34C    basis set group =>   4
Atom  35H    basis set group =>   5
Atom  36H    basis set group =>   5
Atom  37H    basis set group =>   5
------------------------------------------------------------------------------
                           ORCA GTO INTEGRAL CALCULATION
                           -- RI-GTO INTEGRALS CHOSEN --
------------------------------------------------------------------------------

                         BASIS SET STATISTICS AND STARTUP INFO

Gaussian basis set:
 # of primitive gaussian shells          ...  552
 # of primitive gaussian functions       ... 1186
 # of contracted shells                  ...  310
 # of contracted basis functions         ...  792
 Highest angular momentum                ...    3
 Maximum contraction depth               ...    8
Auxiliary gaussian basis set:
 # of primitive gaussian shells          ...  667
 # of primitive gaussian functions       ... 1833
 # of contracted shells                  ...  418
 # of contracted aux-basis functions     ... 1294
 Highest angular momentum                ...    4
 Maximum contraction depth               ...   12
Ratio of auxiliary to basis functions    ...  1.63
Integral package used                  ... LIBINT
 One Electron integrals                  ... done
 Ordering auxiliary basis shells         ... done
 Integral threshhold             Thresh  ...  1.000e-10
 Primitive cut-off               TCut    ...  1.000e-11
 Pre-screening matrix                    ... done
 Shell pair data                         ... 
 Ordering of the shell pairs             ... done (   0.004 sec) 34813 of 48205 pairs
 Determination of significant pairs      ... done (   0.000 sec)
 Creation of shell pair data             ... done (   0.002 sec)
 Storage of shell pair data              ... done (   0.003 sec)
 Shell pair data done in (   0.009 sec)
 Computing two index integrals           ... done
 Cholesky decomposition of the V-matrix  ... done


Timings:
 Total evaluation time                   ...   0.608 sec (  0.010 min)
 One electron matrix time                ...   0.232 sec (  0.004 min) = 38.2%
 Schwartz matrix evaluation time         ...   0.274 sec (  0.005 min) = 45.2%
 Two index repulsion integral time       ...   0.043 sec (  0.001 min) =  7.1%
 Cholesky decomposition of V             ...   0.032 sec (  0.001 min) =  5.2%
 Three index repulsion integral time     ...   0.000 sec (  0.000 min) =  0.0%

-------------------------------------------------------------------------------
                                 ORCA SCF
-------------------------------------------------------------------------------

------------
SCF SETTINGS
------------
Hamiltonian:
 Density Functional     Method          .... DFT(GTOs)
 Exchange Functional    Exchange        .... B88
   X-Alpha parameter    XAlpha          ....  0.666667
   Becke's b parameter  XBeta           ....  0.004200
 Correlation Functional Correlation     .... P86
 LDA part of GGA corr.  LDAOpt          .... PW91-LDA
 Gradients option       PostSCFGGA      .... off
   Density functional embedding theory  .... OFF
 RI-approximation to the Coulomb term is turned on
   Number of auxiliary basis functions  .... 1294
   RIJ-COSX (HFX calculated with COS-X)).... on


General Settings:
 Integral files         IntName         .... Cr2A_Freq2
 Hartree-Fock type      HFTyp           .... UHF
 Total Charge           Charge          ....    1
 Multiplicity           Mult            ....    4
 Number of Electrons    NEL             ....  169
 Basis Dimension        Dim             ....  792
 Nuclear Repulsion      ENuc            ....   2078.0967084046 Eh

Convergence Acceleration:
 DIIS                   CNVDIIS         .... on
   Start iteration      DIISMaxIt       ....    12
   Startup error        DIISStart       ....  0.200000
   # of expansion vecs  DIISMaxEq       ....     5
   Bias factor          DIISBfac        ....   1.050
   Max. coefficient     DIISMaxC        ....  10.000
 Newton-Raphson         CNVNR           .... off
 SOSCF                  CNVSOSCF        .... off
 Level Shifting         CNVShift        .... on
   Level shift para.    LevelShift      ....    0.2500
   Turn off err/grad.   ShiftErr        ....    0.0010
 Zerner damping         CNVZerner       .... off
 Static damping         CNVDamp         .... on
   Fraction old density DampFac         ....    0.7000
   Max. Damping (<1)    DampMax         ....    0.9800
   Min. Damping (>=0)   DampMin         ....    0.0000
   Turn off err/grad.   DampErr         ....    0.1000
 Fernandez-Rico         CNVRico         .... off

SCF Procedure:
 Maximum # iterations   MaxIter         ....   125
 SCF integral mode      SCFMode         .... Direct
   Integral package                     .... LIBINT
 Reset frequency        DirectResetFreq ....    20
 Integral Threshold     Thresh          ....  1.000e-10 Eh
 Primitive CutOff       TCut            ....  1.000e-11 Eh

Convergence Tolerance:
 Convergence Check Mode ConvCheckMode   .... Total+1el-Energy
 Convergence forced     ConvForced      .... 0
 Energy Change          TolE            ....  1.000e-06 Eh
 1-El. energy change                    ....  1.000e-03 Eh
 DIIS Error             TolErr          ....  1.000e-06


Diagonalization of the overlap matrix:
Smallest eigenvalue                        ... 6.118e-06
Time for diagonalization                   ...    0.089 sec
Threshold for overlap eigenvalues          ... 1.000e-08
Number of eigenvalues below threshold      ... 0
Time for construction of square roots      ...    0.041 sec
Total time needed                          ...    0.133 sec

---------------------
INITIAL GUESS: MOREAD
---------------------
Guess MOs are being read from file: Cr2A_Tight.ges
Input Geometry matches current geometry (good)
Input basis set matches current basis set (good)
MOs were renormalized
MOs were reorthogonalized (Cholesky)
                      ------------------
                      INITIAL GUESS DONE (   0.3 sec)
                      ------------------
-------------------
DFT GRID GENERATION
-------------------

General Integration Accuracy     IntAcc      ...  5.340
Radial Grid Type                 RadialGrid  ... Gauss-Chebyshev
Angular Grid (max. acc.)         AngularGrid ... Lebedev-590
Angular grid pruning method      GridPruning ... 3 (G Style)
Weight generation scheme         WeightScheme... Becke
Basis function cutoff            BFCut       ...    1.0000e-10
Integration weight cutoff        WCut        ...    1.0000e-14
Grids for H and He will be reduced by one unit

# of grid points (after initial pruning)     ... 546492 (   0.3 sec)
# of grid points (after weights+screening)   ... 474626 (   2.4 sec)
nearest neighbour list constructed           ...    0.0 sec
Grid point re-assignment to atoms done       ...    0.0 sec
Grid point division into batches done        ...    3.0 sec
Reduced shell lists constructed in    9.8 sec

Total number of grid points                  ...   474626
Total number of batches                      ...     7439
Average number of points per batch           ...       63
Average number of grid points per atom       ...    12490
Average number of shells per batch           ...   115.99 (37.42%)
Average number of basis functions per batch  ...   287.15 (36.26%)
Average number of large shells per batch     ...    74.56 (64.29%)
Average number of large basis fcns per batch ...   187.26 (65.21%)
Maximum spatial batch extension              ...  22.02, 22.60, 23.30 au
Average spatial batch extension              ...   1.61,  1.63,  1.66 au

Time for grid setup =   12.688 sec

--------------------
COSX GRID GENERATION
--------------------

General Integration Accuracy     IntAcc      ...  3.340
Radial Grid Type                 RadialGrid  ... Gauss-Chebyshev
Angular Grid (max. acc.)         AngularGrid ... Lebedev-50
Angular grid pruning method      GridPruning ... 3 (G Style)
Weight generation scheme         WeightScheme... Becke
Basis function cutoff            BFCut       ...    1.0000e-10
Integration weight cutoff        WCut        ...    1.0000e-14
Grids for H and He will be reduced by one unit

# of grid points (after initial pruning)     ...  18314 (   0.0 sec)
# of grid points (after weights+screening)   ...  16566 (   0.1 sec)
nearest neighbour list constructed           ...    0.0 sec
Grid point re-assignment to atoms done       ...    0.0 sec
Grid point division into batches done        ...    0.0 sec
Reduced shell lists constructed in    0.2 sec

Total number of grid points                  ...    16566
Total number of batches                      ...      277
Average number of points per batch           ...       59
Average number of grid points per atom       ...      436
Average number of shells per batch           ...   149.45 (48.21%)
Average number of basis functions per batch  ...   378.21 (47.75%)
Average number of large shells per batch     ...    99.48 (66.57%)
Average number of large basis fcns per batch ...   255.16 (67.47%)
Maximum spatial batch extension              ...  17.91, 19.12, 19.36 au
Average spatial batch extension              ...   4.44,  4.72,  5.17 au

Overlap Fitting                  UseSFitting ... on
Constructing numerical overlap ... done (      0.2 sec)
Inverting numerical overlap    ... done (      0.0 sec)
Obtaining analytic overlap     ... done (      0.0 sec)
Final contraction and storage  ... done (      0.0 sec)


General Integration Accuracy     IntAcc      ...  3.670
Radial Grid Type                 RadialGrid  ... Gauss-Chebyshev
Angular Grid (max. acc.)         AngularGrid ... Lebedev-50
Angular grid pruning method      GridPruning ... 3 (G Style)
Weight generation scheme         WeightScheme... Becke
Basis function cutoff            BFCut       ...    1.0000e-10
Integration weight cutoff        WCut        ...    1.0000e-14
Grids for H and He will be reduced by one unit

# of grid points (after initial pruning)     ...  23080 (   0.0 sec)
# of grid points (after weights+screening)   ...  20817 (   0.1 sec)
nearest neighbour list constructed           ...    0.0 sec
Grid point re-assignment to atoms done       ...    0.0 sec
Grid point division into batches done        ...    0.0 sec
Reduced shell lists constructed in    0.3 sec

Total number of grid points                  ...    20817
Total number of batches                      ...      341
Average number of points per batch           ...       61
Average number of grid points per atom       ...      548
Average number of shells per batch           ...   145.82 (47.04%)
Average number of basis functions per batch  ...   368.68 (46.55%)
Average number of large shells per batch     ...    96.42 (66.12%)
Average number of large basis fcns per batch ...   246.35 (66.82%)
Maximum spatial batch extension              ...  19.47, 22.63, 22.63 au
Average spatial batch extension              ...   4.10,  4.41,  4.74 au

Overlap Fitting                  UseSFitting ... on
Constructing numerical overlap ... done (      0.2 sec)
Inverting numerical overlap    ... done (      0.0 sec)
Obtaining analytic overlap     ... done (      0.0 sec)
Final contraction and storage  ... done (      0.0 sec)


General Integration Accuracy     IntAcc      ...  4.010
Radial Grid Type                 RadialGrid  ... Gauss-Chebyshev
Angular Grid (max. acc.)         AngularGrid ... Lebedev-110
Angular grid pruning method      GridPruning ... 3 (G Style)
Weight generation scheme         WeightScheme... Becke
Basis function cutoff            BFCut       ...    1.0000e-10
Integration weight cutoff        WCut        ...    1.0000e-14
Grids for H and He will be reduced by one unit

# of grid points (after initial pruning)     ...  44074 (   0.0 sec)
# of grid points (after weights+screening)   ...  39522 (   0.2 sec)
nearest neighbour list constructed           ...    0.0 sec
Grid point re-assignment to atoms done       ...    0.0 sec
Grid point division into batches done        ...    0.0 sec
Reduced shell lists constructed in    0.5 sec

Total number of grid points                  ...    39522
Total number of batches                      ...      636
Average number of points per batch           ...       62
Average number of grid points per atom       ...     1040
Average number of shells per batch           ...   138.86 (44.79%)
Average number of basis functions per batch  ...   349.19 (44.09%)
Average number of large shells per batch     ...    91.59 (65.96%)
Average number of large basis fcns per batch ...   233.39 (66.84%)
Maximum spatial batch extension              ...  21.07, 20.88, 21.11 au
Average spatial batch extension              ...   3.50,  3.68,  3.86 au

Overlap Fitting                  UseSFitting ... on
Constructing numerical overlap ... done (      0.4 sec)
Inverting numerical overlap    ... done (      0.0 sec)
Obtaining analytic overlap     ... done (      0.0 sec)
Final contraction and storage  ... done (      0.0 sec)

Time for X-Grid setup             =    2.253 sec
--------------
SCF ITERATIONS
--------------
ITER       Energy         Delta-E        Max-DP      RMS-DP      [F,P]     Damp
               ***  Starting incremental Fock matrix formation  ***
  0  -1925.0521732426   0.000000000000 0.00070559  0.00000414  0.0000016 0.7000
                 **** Energy Check signals convergence ****

               *****************************************************
               *                     SUCCESS                       *
               *           SCF CONVERGED AFTER   1 CYCLES          *
               *****************************************************

Setting up the final grid:

General Integration Accuracy     IntAcc      ...  5.340
Radial Grid Type                 RadialGrid  ... Gauss-Chebyshev
Angular Grid (max. acc.)         AngularGrid ... Lebedev-590
Angular grid pruning method      GridPruning ... 3 (G Style)
Weight generation scheme         WeightScheme... Becke
Basis function cutoff            BFCut       ...    1.0000e-10
Integration weight cutoff        WCut        ...    1.0000e-14
Grids for H and He will be reduced by one unit

# of grid points (after initial pruning)     ... 546492 (   0.2 sec)
# of grid points (after weights+screening)   ... 474626 (   2.4 sec)
nearest neighbour list constructed           ...    0.0 sec
Grid point re-assignment to atoms done       ...    0.0 sec
Grid point division into batches done        ...    3.0 sec
Reduced shell lists constructed in    7.7 sec

Total number of grid points                  ...   474626
Total number of batches                      ...     7439
Average number of points per batch           ...       63
Average number of grid points per atom       ...    12490
Average number of shells per batch           ...   115.99 (37.42%)
Average number of basis functions per batch  ...   287.15 (36.26%)
Average number of large shells per batch     ...    74.56 (64.29%)
Average number of large basis fcns per batch ...   187.26 (65.21%)
Maximum spatial batch extension              ...  22.02, 22.60, 23.30 au
Average spatial batch extension              ...   1.61,  1.63,  1.66 au

Final grid set up in   10.3 sec
Final integration                            ... done (  19.9 sec)
Change in XC energy                          ...    -0.000000269
Integrated number of electrons               ...   169.000042149
Previous integrated no of electrons          ...   169.000042153

----------------
TOTAL SCF ENERGY
----------------

Total Energy       :        -1925.05217335 Eh          -52383.33275 eV

Components:
Nuclear Repulsion  :         2078.09670840 Eh           56547.88627 eV
Electronic Energy  :        -4003.14888176 Eh         -108931.21903 eV
One Electron Energy:        -6741.19610407 Eh         -183437.27176 eV
Two Electron Energy:         2738.04722231 Eh           74506.05273 eV

Virial components:
Potential Energy   :        -3844.11056542 Eh         -104603.56643 eV
Kinetic Energy     :         1919.05839207 Eh           52220.23367 eV
Virial Ratio       :            2.00312329


DFT components:
N(Alpha)           :       86.000020919778 electrons
N(Beta)            :       83.000021229626 electrons
N(Total)           :      169.000042149404 electrons
E(X)               :     -168.305666097303 Eh       
E(C)               :       -6.485020297580 Eh       
E(XC)              :     -174.790686394883 Eh       
DFET-embed. en.    :        0.000000000000 Eh       

---------------
SCF CONVERGENCE
---------------

  Last Energy change         ...    1.5886e-07  Tolerance :   1.0000e-06
  Last MAX-Density change    ...    3.0427e-04  Tolerance :   1.0000e-05
  Last RMS-Density change    ...    1.8044e-06  Tolerance :   1.0000e-06
  Last DIIS Error            ...    1.1012e-06  Tolerance :   1.0000e-06

             **** THE GBW FILE WAS UPDATED (Cr2A_Freq2.gbw) ****
             **** DENSITY FILE WAS UPDATED (Cr2A_Freq2.scfp) ****
             **** ENERGY FILE WAS UPDATED (Cr2A_Freq2.en.tmp) ****
----------------------
UHF SPIN CONTAMINATION
----------------------

Warning: in a DFT calculation there is little theoretical justification to 
         calculate <S**2> as in Hartree-Fock theory. We will do it anyways
         but you should keep in mind that the values have only limited relevance

Expectation value of <S**2>     :     3.805636
Ideal value S*(S+1) for S=1.5   :     3.750000
Deviation                       :     0.055636

             **** THE GBW FILE WAS UPDATED (Cr2A_Freq2.gbw) ****
             **** DENSITY FILE WAS UPDATED (Cr2A_Freq2.scfp) ****
----------------
ORBITAL ENERGIES
----------------
                 SPIN UP ORBITALS
  NO   OCC          E(Eh)            E(eV) 
   0   1.0000    -214.708800     -5842.5235 
   1   1.0000     -24.440039      -665.0473 
   2   1.0000     -20.805793      -566.1544 
   3   1.0000     -20.802797      -566.0729 
   4   1.0000     -20.800312      -566.0053 
   5   1.0000     -18.993289      -516.8337 
   6   1.0000     -14.176238      -385.7550 
   7   1.0000     -14.147663      -384.9775 
   8   1.0000     -10.102318      -274.8980 
   9   1.0000     -10.100012      -274.8353 
  10   1.0000     -10.094998      -274.6989 
  11   1.0000     -10.080181      -274.2957 
  12   1.0000     -10.059587      -273.7353 
  13   1.0000     -10.056280      -273.6453 
  14   1.0000     -10.036995      -273.1205 
  15   1.0000     -10.036092      -273.0959 
  16   1.0000     -10.035455      -273.0786 
  17   1.0000     -10.035204      -273.0718 
  18   1.0000     -10.029621      -272.9199 
  19   1.0000     -10.029360      -272.9128 
  20   1.0000     -10.029089      -272.9054 
  21   1.0000     -10.027562      -272.8638 
  22   1.0000     -10.025521      -272.8083 
  23   1.0000     -10.024009      -272.7671 
  24   1.0000     -10.016126      -272.5526 
  25   1.0000     -10.007675      -272.3227 
  26   1.0000      -2.921335       -79.4936 
  27   1.0000      -1.918705       -52.2106 
  28   1.0000      -1.912248       -52.0349 
  29   1.0000      -1.904677       -51.8289 
  30   1.0000      -1.153249       -31.3815 
  31   1.0000      -1.024542       -27.8792 
  32   1.0000      -0.997074       -27.1318 
  33   1.0000      -0.921574       -25.0773 
  34   1.0000      -0.907101       -24.6835 
  35   1.0000      -0.846499       -23.0344 
  36   1.0000      -0.827695       -22.5227 
  37   1.0000      -0.820060       -22.3150 
  38   1.0000      -0.812645       -22.1132 
  39   1.0000      -0.800596       -21.7853 
  40   1.0000      -0.782207       -21.2849 
  41   1.0000      -0.735157       -20.0046 
  42   1.0000      -0.730402       -19.8753 
  43   1.0000      -0.717691       -19.5294 
  44   1.0000      -0.688983       -18.7482 
  45   1.0000      -0.674748       -18.3608 
  46   1.0000      -0.663114       -18.0442 
  47   1.0000      -0.650911       -17.7122 
  48   1.0000      -0.629303       -17.1242 
  49   1.0000      -0.618561       -16.8319 
  50   1.0000      -0.609782       -16.5930 
  51   1.0000      -0.594327       -16.1725 
  52   1.0000      -0.588159       -16.0046 
  53   1.0000      -0.573000       -15.5921 
  54   1.0000      -0.563996       -15.3471 
  55   1.0000      -0.540010       -14.6944 
  56   1.0000      -0.536843       -14.6083 
  57   1.0000      -0.529466       -14.4075 
  58   1.0000      -0.525752       -14.3064 
  59   1.0000      -0.518510       -14.1094 
  60   1.0000      -0.513763       -13.9802 
  61   1.0000      -0.507438       -13.8081 
  62   1.0000      -0.504092       -13.7171 
  63   1.0000      -0.488718       -13.2987 
  64   1.0000      -0.482158       -13.1202 
  65   1.0000      -0.477247       -12.9866 
  66   1.0000      -0.475763       -12.9462 
  67   1.0000      -0.474086       -12.9005 
  68   1.0000      -0.469419       -12.7735 
  69   1.0000      -0.461234       -12.5508 
  70   1.0000      -0.449879       -12.2418 
  71   1.0000      -0.446904       -12.1609 
  72   1.0000      -0.445340       -12.1183 
  73   1.0000      -0.439214       -11.9516 
  74   1.0000      -0.436807       -11.8861 
  75   1.0000      -0.429034       -11.6746 
  76   1.0000      -0.391727       -10.6594 
  77   1.0000      -0.372437       -10.1345 
  78   1.0000      -0.369057       -10.0426 
  79   1.0000      -0.366953        -9.9853 
  80   1.0000      -0.364291        -9.9129 
  81   1.0000      -0.353671        -9.6239 
  82   1.0000      -0.349166        -9.5013 
  83   1.0000      -0.341461        -9.2916 
  84   1.0000      -0.324283        -8.8242 
  85   1.0000      -0.308068        -8.3829 
  86   0.0000      -0.260627        -7.0920 
  87   0.0000      -0.244214        -6.6454 
  88   0.0000      -0.211256        -5.7486 
  89   0.0000      -0.178941        -4.8692 
  90   0.0000      -0.176617        -4.8060 
  91   0.0000      -0.163950        -4.4613 
  92   0.0000      -0.162778        -4.4294 
  93   0.0000      -0.144160        -3.9228 
  94   0.0000      -0.108362        -2.9487 
  95   0.0000      -0.099728        -2.7137 
  96   0.0000      -0.084015        -2.2862 
  97   0.0000      -0.080675        -2.1953 
  98   0.0000      -0.079443        -2.1618 
  99   0.0000      -0.073245        -1.9931 
 100   0.0000      -0.065975        -1.7953 
 101   0.0000      -0.056046        -1.5251 
 102   0.0000      -0.050034        -1.3615 
 103   0.0000      -0.045632        -1.2417 
 104   0.0000      -0.038296        -1.0421 
 105   0.0000      -0.033629        -0.9151 
 106   0.0000      -0.032068        -0.8726 
 107   0.0000      -0.026346        -0.7169 
 108   0.0000      -0.020990        -0.5712 
 109   0.0000      -0.019884        -0.5411 
 110   0.0000      -0.017281        -0.4702 
 111   0.0000      -0.015185        -0.4132 
 112   0.0000      -0.010506        -0.2859 
 113   0.0000      -0.009379        -0.2552 
 114   0.0000      -0.003287        -0.0894 
 115   0.0000       0.003722         0.1013 
 116   0.0000       0.005452         0.1484 
 117   0.0000       0.009519         0.2590 
 118   0.0000       0.018880         0.5137 
 119   0.0000       0.022820         0.6210 
 120   0.0000       0.029350         0.7987 
 121   0.0000       0.030654         0.8341 
 122   0.0000       0.039152         1.0654 
 123   0.0000       0.044333         1.2064 
 124   0.0000       0.051336         1.3969 
 125   0.0000       0.052943         1.4407 
 126   0.0000       0.058350         1.5878 
 127   0.0000       0.063119         1.7176 
 128   0.0000       0.064272         1.7489 
 129   0.0000       0.071887         1.9562 
 130   0.0000       0.074022         2.0142 
 131   0.0000       0.083079         2.2607 
 132   0.0000       0.087604         2.3838 
 133   0.0000       0.088217         2.4005 
 134   0.0000       0.092100         2.5062 
 135   0.0000       0.097619         2.6564 
 136   0.0000       0.098657         2.6846 
 137   0.0000       0.101730         2.7682 
 138   0.0000       0.109755         2.9866 
 139   0.0000       0.115123         3.1327 
 140   0.0000       0.117065         3.1855 
 141   0.0000       0.122844         3.3428 
 142   0.0000       0.125567         3.4168 
 143   0.0000       0.127680         3.4743 
 144   0.0000       0.128421         3.4945 
 145   0.0000       0.130739         3.5576 
 146   0.0000       0.137674         3.7463 
 147   0.0000       0.139721         3.8020 
 148   0.0000       0.143315         3.8998 
 149   0.0000       0.154030         4.1914 
 150   0.0000       0.157750         4.2926 
 151   0.0000       0.161501         4.3947 
 152   0.0000       0.164325         4.4715 
 153   0.0000       0.169652         4.6165 
 154   0.0000       0.173586         4.7235 
 155   0.0000       0.179250         4.8777 
 156   0.0000       0.181954         4.9512 
 157   0.0000       0.186218         5.0672 
 158   0.0000       0.193177         5.2566 
 159   0.0000       0.195096         5.3088 
 160   0.0000       0.199947         5.4408 
 161   0.0000       0.204288         5.5590 
 162   0.0000       0.207528         5.6471 
 163   0.0000       0.215452         5.8627 
 164   0.0000       0.219684         5.9779 
 165   0.0000       0.222044         6.0421 
 166   0.0000       0.227359         6.1867 
 167   0.0000       0.233424         6.3518 
 168   0.0000       0.236449         6.4341 
 169   0.0000       0.238920         6.5013 
 170   0.0000       0.246943         6.7197 
 171   0.0000       0.249161         6.7800 
 172   0.0000       0.251482         6.8432 
 173   0.0000       0.255882         6.9629 
 174   0.0000       0.264304         7.1921 
 175   0.0000       0.268391         7.3033 
 176   0.0000       0.270012         7.3474 
 177   0.0000       0.271616         7.3910 
 178   0.0000       0.273933         7.4541 
 179   0.0000       0.279027         7.5927 
 180   0.0000       0.286270         7.7898 
 181   0.0000       0.290564         7.9067 
 182   0.0000       0.292553         7.9608 
 183   0.0000       0.295766         8.0482 
 184   0.0000       0.299584         8.1521 
 185   0.0000       0.300639         8.1808 
 186   0.0000       0.306760         8.3474 
 187   0.0000       0.312265         8.4972 
 188   0.0000       0.314679         8.5628 
 189   0.0000       0.318968         8.6796 
 190   0.0000       0.321810         8.7569 
 191   0.0000       0.328818         8.9476 
 192   0.0000       0.332540         9.0489 
 193   0.0000       0.333663         9.0794 
 194   0.0000       0.340561         9.2671 
 195   0.0000       0.342615         9.3230 
 196   0.0000       0.348048         9.4709 
 197   0.0000       0.348836         9.4923 
 198   0.0000       0.351065         9.5530 
 199   0.0000       0.355640         9.6775 
 200   0.0000       0.358012         9.7420 
 201   0.0000       0.364039         9.9060 
 202   0.0000       0.366962         9.9855 
 203   0.0000       0.371385        10.1059 
 204   0.0000       0.378037        10.2869 
 205   0.0000       0.382637        10.4121 
 206   0.0000       0.385123        10.4797 
 207   0.0000       0.391585        10.6556 
 208   0.0000       0.397583        10.8188 
 209   0.0000       0.405872        11.0443 
 210   0.0000       0.408412        11.1135 
 211   0.0000       0.417387        11.3577 
 212   0.0000       0.421564        11.4713 
 213   0.0000       0.432896        11.7797 
 214   0.0000       0.444813        12.1040 
 215   0.0000       0.447712        12.1829 
 216   0.0000       0.452485        12.3127 
 217   0.0000       0.457116        12.4388 
 218   0.0000       0.459821        12.5124 
 219   0.0000       0.472012        12.8441 
 220   0.0000       0.473854        12.8942 
 221   0.0000       0.481859        13.1120 
 222   0.0000       0.493861        13.4386 
 223   0.0000       0.499030        13.5793 
 224   0.0000       0.502383        13.6705 
 225   0.0000       0.508537        13.8380 
 226   0.0000       0.513017        13.9599 
 227   0.0000       0.514747        14.0070 
 228   0.0000       0.521015        14.1775 
 229   0.0000       0.525090        14.2884 
 230   0.0000       0.532034        14.4774 
 231   0.0000       0.535576        14.5738 
 232   0.0000       0.542200        14.7540 
 233   0.0000       0.546449        14.8696 
 234   0.0000       0.553846        15.0709 
 235   0.0000       0.563396        15.3308 
 236   0.0000       0.565492        15.3878 
 237   0.0000       0.570478        15.5235 
 238   0.0000       0.577221        15.7070 
 239   0.0000       0.579515        15.7694 
 240   0.0000       0.585364        15.9286 
 241   0.0000       0.598327        16.2813 
 242   0.0000       0.600216        16.3327 
 243   0.0000       0.608586        16.5605 
 244   0.0000       0.609079        16.5739 
 245   0.0000       0.616206        16.7678 
 246   0.0000       0.618221        16.8227 
 247   0.0000       0.627150        17.0656 
 248   0.0000       0.632496        17.2111 
 249   0.0000       0.641177        17.4473 
 250   0.0000       0.647011        17.6061 
 251   0.0000       0.651244        17.7213 
 252   0.0000       0.656926        17.8759 
 253   0.0000       0.666733        18.1427 
 254   0.0000       0.668297        18.1853 
 255   0.0000       0.670470        18.2444 
 256   0.0000       0.673674        18.3316 
 257   0.0000       0.689027        18.7494 
 258   0.0000       0.697251        18.9732 
 259   0.0000       0.705567        19.1994 
 260   0.0000       0.721552        19.6344 
 261   0.0000       0.727890        19.8069 
 262   0.0000       0.729691        19.8559 
 263   0.0000       0.736361        20.0374 
 264   0.0000       0.747084        20.3292 
 265   0.0000       0.755162        20.5490 
 266   0.0000       0.767677        20.8896 
 267   0.0000       0.770761        20.9735 
 268   0.0000       0.775993        21.1158 
 269   0.0000       0.780548        21.2398 
 270   0.0000       0.784098        21.3364 
 271   0.0000       0.795403        21.6440 
 272   0.0000       0.800533        21.7836 
 273   0.0000       0.808674        22.0051 
 274   0.0000       0.819648        22.3038 
 275   0.0000       0.822039        22.3688 
 276   0.0000       0.825457        22.4618 
 277   0.0000       0.834226        22.7005 
 278   0.0000       0.846854        23.0441 
 279   0.0000       0.851343        23.1662 
 280   0.0000       0.857255        23.3271 
 281   0.0000       0.865807        23.5598 
 282   0.0000       0.884112        24.0579 
 283   0.0000       0.887536        24.1511 
 284   0.0000       0.896976        24.4080 
 285   0.0000       0.902711        24.5640 
 286   0.0000       0.905834        24.6490 
 287   0.0000       0.911288        24.7974 
 288   0.0000       0.927786        25.2463 
 289   0.0000       0.928435        25.2640 
 290   0.0000       0.937130        25.5006 
 291   0.0000       0.941225        25.6120 
 292   0.0000       0.953401        25.9434 
 293   0.0000       0.967767        26.3343 
 294   0.0000       0.970272        26.4025 
 295   0.0000       0.976386        26.5688 
 296   0.0000       0.982505        26.7353 
 297   0.0000       0.988391        26.8955 
 298   0.0000       0.991415        26.9778 
 299   0.0000       0.993590        27.0370 
 300   0.0000       1.003632        27.3102 
 301   0.0000       1.012258        27.5449 
 302   0.0000       1.026110        27.9219 
 303   0.0000       1.037063        28.2199 
 304   0.0000       1.046235        28.4695 
 305   0.0000       1.047641        28.5078 
 306   0.0000       1.049635        28.5620 
 307   0.0000       1.059925        28.8420 
 308   0.0000       1.061256        28.8782 
 309   0.0000       1.063791        28.9472 
 310   0.0000       1.069684        29.1076 
 311   0.0000       1.074865        29.2486 
 312   0.0000       1.084927        29.5224 
 313   0.0000       1.092565        29.7302 
 314   0.0000       1.094283        29.7770 
 315   0.0000       1.104748        30.0617 
 316   0.0000       1.108902        30.1748 
 317   0.0000       1.114492        30.3269 
 318   0.0000       1.116625        30.3849 
 319   0.0000       1.130755        30.7694 
 320   0.0000       1.138663        30.9846 
 321   0.0000       1.160743        31.5854 
 322   0.0000       1.167516        31.7697 
 323   0.0000       1.170195        31.8426 
 324   0.0000       1.185261        32.2526 
 325   0.0000       1.193038        32.4642 
 326   0.0000       1.206892        32.8412 
 327   0.0000       1.217705        33.1354 
 328   0.0000       1.223428        33.2912 
 329   0.0000       1.230763        33.4908 
 330   0.0000       1.240904        33.7667 
 331   0.0000       1.249631        34.0042 
 332   0.0000       1.254683        34.1417 
 333   0.0000       1.259058        34.2607 
 334   0.0000       1.268898        34.5285 
 335   0.0000       1.272270        34.6202 
 336   0.0000       1.277867        34.7725 
 337   0.0000       1.289010        35.0757 
 338   0.0000       1.296080        35.2681 
 339   0.0000       1.299362        35.3574 
 340   0.0000       1.307795        35.5869 
 341   0.0000       1.319238        35.8983 
 342   0.0000       1.324439        36.0398 
 343   0.0000       1.325528        36.0695 
 344   0.0000       1.333397        36.2836 
 345   0.0000       1.338114        36.4119 
 346   0.0000       1.345850        36.6224 
 347   0.0000       1.352801        36.8116 
 348   0.0000       1.355986        36.8983 
 349   0.0000       1.362960        37.0880 
 350   0.0000       1.370517        37.2937 
 351   0.0000       1.374697        37.4074 
 352   0.0000       1.386302        37.7232 
 353   0.0000       1.390775        37.8449 
 354   0.0000       1.396178        37.9919 
 355   0.0000       1.406116        38.2624 
 356   0.0000       1.407953        38.3123 
 357   0.0000       1.416016        38.5317 
 358   0.0000       1.420672        38.6585 
 359   0.0000       1.430430        38.9240 
 360   0.0000       1.441558        39.2268 
 361   0.0000       1.445453        39.3328 
 362   0.0000       1.448700        39.4211 
 363   0.0000       1.452446        39.5231 
 364   0.0000       1.461000        39.7558 
 365   0.0000       1.468790        39.9678 
 366   0.0000       1.471399        40.0388 
 367   0.0000       1.478467        40.2311 
 368   0.0000       1.481429        40.3117 
 369   0.0000       1.488388        40.5011 
 370   0.0000       1.496876        40.7321 
 371   0.0000       1.503714        40.9181 
 372   0.0000       1.508134        41.0384 
 373   0.0000       1.514856        41.2213 
 374   0.0000       1.518536        41.3215 
 375   0.0000       1.529286        41.6140 
 376   0.0000       1.533343        41.7244 
 377   0.0000       1.537859        41.8473 
 378   0.0000       1.542275        41.9674 
 379   0.0000       1.547408        42.1071 
 380   0.0000       1.557323        42.3769 
 381   0.0000       1.561913        42.5018 
 382   0.0000       1.568535        42.6820 
 383   0.0000       1.571937        42.7746 
 384   0.0000       1.588307        43.2200 
 385   0.0000       1.595547        43.4170 
 386   0.0000       1.604664        43.6651 
 387   0.0000       1.617281        44.0085 
 388   0.0000       1.618873        44.0518 
 389   0.0000       1.626467        44.2584 
 390   0.0000       1.638803        44.5941 
 391   0.0000       1.647441        44.8291 
 392   0.0000       1.655983        45.0616 
 393   0.0000       1.672620        45.5143 
 394   0.0000       1.675322        45.5878 
 395   0.0000       1.694096        46.0987 
 396   0.0000       1.699408        46.2433 
 397   0.0000       1.716883        46.7188 
 398   0.0000       1.733427        47.1689 
 399   0.0000       1.742166        47.4067 
 400   0.0000       1.749842        47.6156 
 401   0.0000       1.767347        48.0920 
 402   0.0000       1.770597        48.1804 
 403   0.0000       1.776964        48.3537 
 404   0.0000       1.792040        48.7639 
 405   0.0000       1.802504        49.0486 
 406   0.0000       1.812141        49.3109 
 407   0.0000       1.822285        49.5869 
 408   0.0000       1.826458        49.7004 
 409   0.0000       1.836794        49.9817 
 410   0.0000       1.847376        50.2696 
 411   0.0000       1.857276        50.5391 
 412   0.0000       1.861868        50.6640 
 413   0.0000       1.867244        50.8103 
 414   0.0000       1.870863        50.9088 
 415   0.0000       1.882424        51.2234 
 416   0.0000       1.889460        51.4148 
 417   0.0000       1.894177        51.5432 
 418   0.0000       1.907074        51.8941 
 419   0.0000       1.920243        52.2525 
 420   0.0000       1.922448        52.3125 
 421   0.0000       1.925653        52.3997 
 422   0.0000       1.936415        52.6925 
 423   0.0000       1.946107        52.9563 
 424   0.0000       1.953383        53.1543 
 425   0.0000       1.959025        53.3078 
 426   0.0000       1.965625        53.4874 
 427   0.0000       1.973413        53.6993 
 428   0.0000       1.980749        53.8989 
 429   0.0000       1.992775        54.2262 
 430   0.0000       2.000857        54.4461 
 431   0.0000       2.014754        54.8242 
 432   0.0000       2.023232        55.0549 
 433   0.0000       2.035564        55.3905 
 434   0.0000       2.039460        55.4965 
 435   0.0000       2.044038        55.6211 
 436   0.0000       2.053131        55.8685 
 437   0.0000       2.066152        56.2229 
 438   0.0000       2.072501        56.3956 
 439   0.0000       2.080953        56.6256 
 440   0.0000       2.095072        57.0098 
 441   0.0000       2.097276        57.0698 
 442   0.0000       2.112721        57.4901 
 443   0.0000       2.125204        57.8297 
 444   0.0000       2.140414        58.2436 
 445   0.0000       2.152520        58.5731 
 446   0.0000       2.172123        59.1065 
 447   0.0000       2.176967        59.2383 
 448   0.0000       2.183519        59.4166 
 449   0.0000       2.199316        59.8464 
 450   0.0000       2.205085        60.0034 
 451   0.0000       2.221569        60.4520 
 452   0.0000       2.223420        60.5023 
 453   0.0000       2.237164        60.8763 
 454   0.0000       2.247018        61.1445 
 455   0.0000       2.254309        61.3429 
 456   0.0000       2.260763        61.5185 
 457   0.0000       2.278959        62.0136 
 458   0.0000       2.287668        62.2506 
 459   0.0000       2.301538        62.6280 
 460   0.0000       2.304445        62.7071 
 461   0.0000       2.323076        63.2141 
 462   0.0000       2.332240        63.4635 
 463   0.0000       2.340316        63.6832 
 464   0.0000       2.348140        63.8961 
 465   0.0000       2.354906        64.0803 
 466   0.0000       2.357522        64.1514 
 467   0.0000       2.373174        64.5773 
 468   0.0000       2.378278        64.7162 
 469   0.0000       2.382438        64.8294 
 470   0.0000       2.390620        65.0521 
 471   0.0000       2.395476        65.1842 
 472   0.0000       2.406983        65.4973 
 473   0.0000       2.413126        65.6645 
 474   0.0000       2.422216        65.9119 
 475   0.0000       2.425187        65.9927 
 476   0.0000       2.428070        66.0711 
 477   0.0000       2.432779        66.1993 
 478   0.0000       2.433951        66.2312 
 479   0.0000       2.436128        66.2904 
 480   0.0000       2.444448        66.5168 
 481   0.0000       2.448987        66.6403 
 482   0.0000       2.459419        66.9242 
 483   0.0000       2.461712        66.9866 
 484   0.0000       2.464473        67.0617 
 485   0.0000       2.475296        67.3562 
 486   0.0000       2.477566        67.4180 
 487   0.0000       2.483860        67.5893 
 488   0.0000       2.486785        67.6689 
 489   0.0000       2.501834        68.0784 
 490   0.0000       2.504784        68.1586 
 491   0.0000       2.507948        68.2447 
 492   0.0000       2.513232        68.3885 
 493   0.0000       2.521779        68.6211 
 494   0.0000       2.528161        68.7948 
 495   0.0000       2.534629        68.9708 
 496   0.0000       2.541552        69.1591 
 497   0.0000       2.544107        69.2287 
 498   0.0000       2.557665        69.5976 
 499   0.0000       2.562610        69.7322 
 500   0.0000       2.568060        69.8805 
 501   0.0000       2.573552        70.0299 
 502   0.0000       2.578197        70.1563 
 503   0.0000       2.588019        70.4236 
 504   0.0000       2.594249        70.5931 
 505   0.0000       2.603289        70.8391 
 506   0.0000       2.606263        70.9200 
 507   0.0000       2.610928        71.0470 
 508   0.0000       2.616509        71.1988 
 509   0.0000       2.622811        71.3703 
 510   0.0000       2.634301        71.6830 
 511   0.0000       2.638133        71.7873 
 512   0.0000       2.648417        72.0671 
 513   0.0000       2.650739        72.1303 
 514   0.0000       2.655070        72.2481 
 515   0.0000       2.658978        72.3545 
 516   0.0000       2.668190        72.6051 
 517   0.0000       2.669270        72.6345 
 518   0.0000       2.674259        72.7703 
 519   0.0000       2.680035        72.9275 
 520   0.0000       2.691000        73.2258 
 521   0.0000       2.701873        73.5217 
 522   0.0000       2.709636        73.7329 
 523   0.0000       2.717640        73.9508 
 524   0.0000       2.722593        74.0855 
 525   0.0000       2.731599        74.3306 
 526   0.0000       2.736342        74.4597 
 527   0.0000       2.736981        74.4770 
 528   0.0000       2.743882        74.6648 
 529   0.0000       2.759744        75.0964 
 530   0.0000       2.765000        75.2395 
 531   0.0000       2.772699        75.4490 
 532   0.0000       2.775987        75.5384 
 533   0.0000       2.780707        75.6669 
 534   0.0000       2.792798        75.9959 
 535   0.0000       2.795902        76.0804 
 536   0.0000       2.800445        76.2040 
 537   0.0000       2.825794        76.8938 
 538   0.0000       2.829485        76.9942 
 539   0.0000       2.839579        77.2689 
 540   0.0000       2.845954        77.4424 
 541   0.0000       2.849845        77.5482 
 542   0.0000       2.856755        77.7363 
 543   0.0000       2.859174        77.8021 
 544   0.0000       2.863838        77.9290 
 545   0.0000       2.882980        78.4499 
 546   0.0000       2.890469        78.6537 
 547   0.0000       2.895121        78.7802 
 548   0.0000       2.903714        79.0141 
 549   0.0000       2.910345        79.1945 
 550   0.0000       2.913774        79.2878 
 551   0.0000       2.913932        79.2921 
 552   0.0000       2.924313        79.5746 
 553   0.0000       2.931459        79.7691 
 554   0.0000       2.932973        79.8103 
 555   0.0000       2.936151        79.8967 
 556   0.0000       2.943076        80.0852 
 557   0.0000       2.947954        80.2179 
 558   0.0000       2.952955        80.3540 
 559   0.0000       2.956887        80.4610 
 560   0.0000       2.960647        80.5633 
 561   0.0000       2.965680        80.7002 
 562   0.0000       2.969998        80.8178 
 563   0.0000       2.981632        81.1343 
 564   0.0000       2.985188        81.2311 
 565   0.0000       2.991223        81.3953 
 566   0.0000       3.007829        81.8472 
 567   0.0000       3.009316        81.8876 
 568   0.0000       3.012934        81.9861 
 569   0.0000       3.031669        82.4959 
 570   0.0000       3.036437        82.6256 
 571   0.0000       3.046916        82.9108 
 572   0.0000       3.052950        83.0750 
 573   0.0000       3.057247        83.1919 
 574   0.0000       3.058842        83.2353 
 575   0.0000       3.063623        83.3654 
 576   0.0000       3.066931        83.4554 
 577   0.0000       3.072696        83.6123 
 578   0.0000       3.076105        83.7051 
 579   0.0000       3.083422        83.9042 
 580   0.0000       3.087902        84.0261 
 581   0.0000       3.099650        84.3458 
 582   0.0000       3.110914        84.6523 
 583   0.0000       3.116547        84.8056 
 584   0.0000       3.119923        84.8974 
 585   0.0000       3.127926        85.1152 
 586   0.0000       3.131211        85.2046 
 587   0.0000       3.143533        85.5399 
 588   0.0000       3.143872        85.5491 
 589   0.0000       3.150036        85.7168 
 590   0.0000       3.160779        86.0092 
 591   0.0000       3.167909        86.2032 
 592   0.0000       3.168985        86.2325 
 593   0.0000       3.175581        86.4120 
 594   0.0000       3.179020        86.5055 
 595   0.0000       3.185775        86.6894 
 596   0.0000       3.188907        86.7746 
 597   0.0000       3.194392        86.9238 
 598   0.0000       3.199029        87.0500 
 599   0.0000       3.204149        87.1893 
 600   0.0000       3.209594        87.3375 
 601   0.0000       3.219129        87.5970 
 602   0.0000       3.223100        87.7050 
 603   0.0000       3.228523        87.8526 
 604   0.0000       3.232512        87.9611 
 605   0.0000       3.241082        88.1943 
 606   0.0000       3.244082        88.2760 
 607   0.0000       3.251477        88.4772 
 608   0.0000       3.259343        88.6912 
 609   0.0000       3.264449        88.8302 
 610   0.0000       3.268161        88.9312 
 611   0.0000       3.277908        89.1964 
 612   0.0000       3.283592        89.3511 
 613   0.0000       3.289844        89.5212 
 614   0.0000       3.291468        89.5654 
 615   0.0000       3.296460        89.7012 
 616   0.0000       3.308371        90.0254 
 617   0.0000       3.309119        90.0457 
 618   0.0000       3.318576        90.3030 
 619   0.0000       3.325327        90.4867 
 620   0.0000       3.329581        90.6025 
 621   0.0000       3.334223        90.7288 
 622   0.0000       3.346761        91.0700 
 623   0.0000       3.369219        91.6811 
 624   0.0000       3.375153        91.8426 
 625   0.0000       3.381681        92.0202 
 626   0.0000       3.395036        92.3836 
 627   0.0000       3.401106        92.5488 
 628   0.0000       3.411332        92.8271 
 629   0.0000       3.435460        93.4836 
 630   0.0000       3.442315        93.6701 
 631   0.0000       3.448712        93.8442 
 632   0.0000       3.455088        94.0177 
 633   0.0000       3.466617        94.3314 
 634   0.0000       3.488921        94.9384 
 635   0.0000       3.499662        95.2306 
 636   0.0000       3.501944        95.2927 
 637   0.0000       3.514041        95.6219 
 638   0.0000       3.528075        96.0038 
 639   0.0000       3.535901        96.2168 
 640   0.0000       3.549392        96.5839 
 641   0.0000       3.561900        96.9242 
 642   0.0000       3.584059        97.5272 
 643   0.0000       3.609127        98.2093 
 644   0.0000       3.617833        98.4462 
 645   0.0000       3.637899        98.9923 
 646   0.0000       3.655867        99.4812 
 647   0.0000       3.684247       100.2535 
 648   0.0000       3.697510       100.6144 
 649   0.0000       3.704273       100.7984 
 650   0.0000       3.721472       101.2664 
 651   0.0000       3.729879       101.4952 
 652   0.0000       3.747125       101.9645 
 653   0.0000       3.767683       102.5239 
 654   0.0000       3.770168       102.5915 
 655   0.0000       3.780344       102.8684 
 656   0.0000       3.787481       103.0626 
 657   0.0000       3.802639       103.4751 
 658   0.0000       3.815445       103.8235 
 659   0.0000       3.831462       104.2594 
 660   0.0000       3.849148       104.7406 
 661   0.0000       3.858479       104.9946 
 662   0.0000       3.873845       105.4127 
 663   0.0000       3.882786       105.6560 
 664   0.0000       3.891237       105.8859 
 665   0.0000       3.893979       105.9606 
 666   0.0000       3.931173       106.9727 
 667   0.0000       3.939046       107.1869 
 668   0.0000       3.951723       107.5318 
 669   0.0000       3.962115       107.8146 
 670   0.0000       3.967896       107.9719 
 671   0.0000       3.975156       108.1695 
 672   0.0000       3.976647       108.2101 
 673   0.0000       3.985602       108.4537 
 674   0.0000       3.989125       108.5496 
 675   0.0000       3.992563       108.6432 
 676   0.0000       4.002934       108.9254 
 677   0.0000       4.011627       109.1619 
 678   0.0000       4.016804       109.3028 
 679   0.0000       4.021832       109.4396 
 680   0.0000       4.026389       109.5636 
 681   0.0000       4.032554       109.7314 
 682   0.0000       4.040942       109.9596 
 683   0.0000       4.047120       110.1277 
 684   0.0000       4.054877       110.3388 
 685   0.0000       4.064359       110.5968 
 686   0.0000       4.071713       110.7969 
 687   0.0000       4.085255       111.1654 
 688   0.0000       4.089338       111.2766 
 689   0.0000       4.112409       111.9043 
 690   0.0000       4.130483       112.3962 
 691   0.0000       4.146141       112.8222 
 692   0.0000       4.151044       112.9557 
 693   0.0000       4.162767       113.2747 
 694   0.0000       4.168905       113.4417 
 695   0.0000       4.212573       114.6299 
 696   0.0000       4.219469       114.8176 
 697   0.0000       4.262352       115.9845 
 698   0.0000       4.274376       116.3117 
 699   0.0000       4.295815       116.8951 
 700   0.0000       4.339074       118.0722 
 701   0.0000       4.365132       118.7813 
 702   0.0000       4.368233       118.8657 
 703   0.0000       4.384757       119.3153 
 704   0.0000       4.404037       119.8399 
 705   0.0000       4.417218       120.1986 
 706   0.0000       4.424688       120.4019 
 707   0.0000       4.439032       120.7922 
 708   0.0000       4.479175       121.8846 
 709   0.0000       4.485629       122.0602 
 710   0.0000       4.497003       122.3697 
 711   0.0000       4.502966       122.5319 
 712   0.0000       4.514948       122.8580 
 713   0.0000       4.545248       123.6825 
 714   0.0000       4.556761       123.9958 
 715   0.0000       4.575868       124.5157 
 716   0.0000       4.577496       124.5600 
 717   0.0000       4.611297       125.4798 
 718   0.0000       4.621330       125.7528 
 719   0.0000       4.633026       126.0710 
 720   0.0000       4.649749       126.5261 
 721   0.0000       4.660147       126.8091 
 722   0.0000       4.674670       127.2042 
 723   0.0000       4.687147       127.5438 
 724   0.0000       4.713893       128.2716 
 725   0.0000       4.743016       129.0640 
 726   0.0000       4.753205       129.3413 
 727   0.0000       4.798198       130.5656 
 728   0.0000       4.834153       131.5440 
 729   0.0000       4.840069       131.7050 
 730   0.0000       4.849223       131.9541 
 731   0.0000       4.866176       132.4154 
 732   0.0000       4.876320       132.6914 
 733   0.0000       4.914098       133.7194 
 734   0.0000       4.920527       133.8944 
 735   0.0000       4.931699       134.1984 
 736   0.0000       4.975441       135.3886 
 737   0.0000       4.994151       135.8977 
 738   0.0000       5.017786       136.5409 
 739   0.0000       5.045033       137.2823 
 740   0.0000       5.049537       137.4049 
 741   0.0000       5.074841       138.0934 
 742   0.0000       5.102920       138.8575 
 743   0.0000       5.111838       139.1002 
 744   0.0000       5.145370       140.0126 
 745   0.0000       5.156669       140.3201 
 746   0.0000       5.163640       140.5098 
 747   0.0000       5.190129       141.2306 
 748   0.0000       5.209651       141.7618 
 749   0.0000       5.235703       142.4707 
 750   0.0000       5.316060       144.6573 
 751   0.0000       5.332414       145.1024 
 752   0.0000       5.391918       146.7216 
 753   0.0000       5.408296       147.1672 
 754   0.0000       5.443611       148.1282 
 755   0.0000       5.524663       150.3337 
 756   0.0000       5.566796       151.4802 
 757   0.0000       5.593668       152.2114 
 758   0.0000       5.608047       152.6027 
 759   0.0000       5.679328       154.5424 
 760   0.0000       5.771567       157.0523 
 761   0.0000       5.799995       157.8259 
 762   0.0000       5.849840       159.1822 
 763   0.0000       5.966973       162.3696 
 764   0.0000       6.131086       166.8353 
 765   0.0000       6.292912       171.2388 
 766   0.0000       6.445176       175.3821 
 767   0.0000       6.637068       180.6038 
 768   0.0000       6.677274       181.6979 
 769   0.0000       6.976720       189.8462 
 770   0.0000       7.186190       195.5462 
 771   0.0000      21.726195       591.1998 
 772   0.0000      21.808516       593.4399 
 773   0.0000      21.838717       594.2617 
 774   0.0000      21.958236       597.5140 
 775   0.0000      22.164418       603.1245 
 776   0.0000      22.168705       603.2411 
 777   0.0000      22.188141       603.7700 
 778   0.0000      22.195197       603.9620 
 779   0.0000      22.250308       605.4617 
 780   0.0000      22.313313       607.1761 
 781   0.0000      22.315066       607.2238 
 782   0.0000      22.372382       608.7835 
 783   0.0000      22.425327       610.2242 
 784   0.0000      22.465042       611.3049 
 785   0.0000      22.470217       611.4457 
 786   0.0000      22.731480       618.5550 
 787   0.0000      22.794483       620.2694 
 788   0.0000      22.930479       623.9700 
 789   0.0000      32.127996       874.2472 
 790   0.0000      32.348130       880.2374 
 791   0.0000      43.953221      1196.0280 

                 SPIN DOWN ORBITALS
  NO   OCC          E(Eh)            E(eV) 
   0   1.0000    -214.708495     -5842.5152 
   1   1.0000     -24.399362      -663.9404 
   2   1.0000     -20.776432      -565.3555 
   3   1.0000     -20.771484      -565.2208 
   4   1.0000     -20.767791      -565.1203 
   5   1.0000     -18.993299      -516.8339 
   6   1.0000     -14.177858      -385.7991 
   7   1.0000     -14.148568      -385.0021 
   8   1.0000     -10.102324      -274.8982 
   9   1.0000     -10.099915      -274.8327 
  10   1.0000     -10.094426      -274.6833 
  11   1.0000     -10.080043      -274.2919 
  12   1.0000     -10.059150      -273.7234 
  13   1.0000     -10.055822      -273.6328 
  14   1.0000     -10.036935      -273.1189 
  15   1.0000     -10.036040      -273.0945 
  16   1.0000     -10.035426      -273.0778 
  17   1.0000     -10.035312      -273.0747 
  18   1.0000     -10.029619      -272.9198 
  19   1.0000     -10.029376      -272.9132 
  20   1.0000     -10.028863      -272.8992 
  21   1.0000     -10.027607      -272.8650 
  22   1.0000     -10.025478      -272.8071 
  23   1.0000     -10.023966      -272.7660 
  24   1.0000     -10.015841      -272.5449 
  25   1.0000     -10.010191      -272.3911 
  26   1.0000      -2.812737       -76.5385 
  27   1.0000      -1.816058       -49.4175 
  28   1.0000      -1.803722       -49.0818 
  29   1.0000      -1.795048       -48.8457 
  30   1.0000      -1.152828       -31.3700 
  31   1.0000      -1.024539       -27.8791 
  32   1.0000      -0.997352       -27.1393 
  33   1.0000      -0.921480       -25.0747 
  34   1.0000      -0.907044       -24.6819 
  35   1.0000      -0.846084       -23.0231 
  36   1.0000      -0.827570       -22.5193 
  37   1.0000      -0.819458       -22.2986 
  38   1.0000      -0.812547       -22.1105 
  39   1.0000      -0.800538       -21.7837 
  40   1.0000      -0.781989       -21.2790 
  41   1.0000      -0.737843       -20.0777 
  42   1.0000      -0.730360       -19.8741 
  43   1.0000      -0.717401       -19.5215 
  44   1.0000      -0.688783       -18.7427 
  45   1.0000      -0.674461       -18.3530 
  46   1.0000      -0.662799       -18.0357 
  47   1.0000      -0.650092       -17.6899 
  48   1.0000      -0.629151       -17.1201 
  49   1.0000      -0.618118       -16.8199 
  50   1.0000      -0.608546       -16.5594 
  51   1.0000      -0.593897       -16.1608 
  52   1.0000      -0.587079       -15.9752 
  53   1.0000      -0.572785       -15.5863 
  54   1.0000      -0.563181       -15.3249 
  55   1.0000      -0.539772       -14.6879 
  56   1.0000      -0.535671       -14.5764 
  57   1.0000      -0.528222       -14.3736 
  58   1.0000      -0.525173       -14.2907 
  59   1.0000      -0.517772       -14.0893 
  60   1.0000      -0.512572       -13.9478 
  61   1.0000      -0.506393       -13.7797 
  62   1.0000      -0.502392       -13.6708 
  63   1.0000      -0.486472       -13.2376 
  64   1.0000      -0.480754       -13.0820 
  65   1.0000      -0.476043       -12.9538 
  66   1.0000      -0.475049       -12.9267 
  67   1.0000      -0.473529       -12.8854 
  68   1.0000      -0.468181       -12.7399 
  69   1.0000      -0.460543       -12.5320 
  70   1.0000      -0.449236       -12.2243 
[...]
     89      -0.000055   0.000236   0.000773   0.572276  -0.114559   0.125021
     90       0.000015  -0.000010   0.000023   0.004353   0.049410   0.024846
     91      -0.000007  -0.000007   0.000021   0.004506   0.054164   0.031958
     92      -0.000013  -0.000002   0.000009   0.002115   0.026472   0.017161
     93       0.000047   0.000074  -0.000199  -0.047441  -0.547732  -0.283236
     94       0.000021   0.000084  -0.000239  -0.052519  -0.616164  -0.323154
     95      -0.000007   0.000042  -0.000125  -0.025887  -0.306830  -0.162406
     96      -0.000004   0.000095  -0.000031   0.242761   0.374729  -0.751325
     97      -0.000004  -0.000015   0.000005  -0.048465  -0.067089   0.140978
     98       0.000005  -0.000037   0.000013  -0.128229  -0.191540   0.389422
     99       0.008011  -0.000319   0.003111   0.001134  -0.000899   0.000699
    100       0.023200  -0.000938   0.009137   0.002651  -0.004340   0.001046
    101       0.016939  -0.000685   0.006663   0.001816  -0.003365   0.000655
    102      -0.000098   0.000316   0.000058  -0.000090   0.000032  -0.000021
    103       0.000002  -0.000101  -0.000017  -0.000163   0.000033  -0.000014
    104       0.000032  -0.000112  -0.000018  -0.000028  -0.000010   0.000003
    105       0.000505  -0.001038  -0.000204   0.000837  -0.000348   0.000130
    106       0.000455  -0.000857  -0.000193   0.000462  -0.000274   0.000035
    107      -0.000403   0.000735   0.000139  -0.000376   0.000239  -0.000017
    108       0.000831  -0.003133  -0.000618  -0.000202  -0.000153  -0.000022
    109      -0.000450   0.001652   0.000306   0.000169   0.000047   0.000007
    110      -0.000048   0.000293   0.000053   0.000156  -0.000038   0.000002
    111      -0.000014   0.000084   0.000013   0.000356  -0.000068   0.000051
    112       0.000019   0.000624   0.000103   0.001317  -0.000169   0.000137
    113       0.000048   0.000357   0.000017   0.000902  -0.000130   0.000116


-----------
IR SPECTRUM
-----------

 Mode    freq (cm**-1)   T**2         TX         TY         TZ
-------------------------------------------------------------------
   6:        20.65    0.170872  ( -0.169677  -0.375876   0.028256)
   7:        33.76    0.078583  (  0.274334   0.054333  -0.019273)
   8:        51.32    0.429677  (  0.359254  -0.200592   0.510271)
   9:        65.40    0.148079  ( -0.195855  -0.330828   0.016509)
  10:        69.00    0.386283  (  0.174230   0.391233  -0.450404)
  11:        75.81    0.149396  ( -0.284673  -0.133011  -0.225091)
  12:        90.34    0.013337  ( -0.074260  -0.007378   0.088135)
  13:       133.07    1.307097  (  1.095242  -0.323339  -0.054725)
  14:       143.74    1.176115  (  0.887442  -0.546007  -0.300730)
  15:       163.31    1.941997  (  0.199198   0.574482  -1.253909)
  16:       192.60    5.055130  (  0.634183   1.469194  -1.579371)
  17:       193.61    0.627555  ( -0.431376   0.533232  -0.396401)
  18:       216.54    0.523406  (  0.245833   0.562502   0.382836)
  19:       223.14    2.550209  ( -1.466646  -0.038106   0.630639)
  20:       271.46    2.257914  ( -0.527294   1.139956   0.824849)
  21:       303.55    1.609232  ( -0.824869   0.359253  -0.894293)
  22:       321.02   14.929005  (  3.740049   0.742275  -0.624552)
  23:       362.12    5.694457  (  1.390953   1.590610   1.108903)
  24:       367.23   10.717851  (  0.034511  -1.938666   2.637846)
  25:       379.24   10.849389  ( -2.516063  -1.739819   1.221411)
  26:       406.01    1.151849  (  0.384514  -0.939056   0.349530)
  27:       408.33    1.698936  ( -0.033940   1.232955  -0.421433)
  28:       444.89    3.252797  (  1.634681   0.139146   0.749168)
  29:       470.99   25.587231  (  1.922223   0.887737   4.593932)
  30:       477.06   14.530834  ( -3.456630   0.519186   1.520851)
  31:       536.26    0.402048  (  0.551726   0.169539  -0.262492)
  32:       565.67    0.272690  ( -0.295753   0.379211  -0.203517)
  33:       571.75    7.107302  (  0.708654  -1.644407   1.975105)
  34:       581.68    2.787548  (  1.668632  -0.034562  -0.044963)
  35:       587.76    2.418708  (  1.383818  -0.673229   0.224764)
  36:       605.47    8.668995  ( -2.361841  -1.648103   0.611933)
  37:       608.45    3.619134  (  1.808283   0.452192  -0.380484)
  38:       625.91   12.982075  ( -3.431244  -0.545471   0.954516)
  39:       650.89    7.345833  (  2.658182  -0.163819  -0.503055)
  40:       668.19    6.234178  (  0.915994  -0.944833   2.121892)
  41:       684.98   17.217949  (  1.898668  -0.637669  -3.634060)
  42:       711.93    8.764542  (  0.485184  -1.890885   2.225689)
  43:       731.17   36.766528  ( -2.800750  -1.208440   5.240420)
  44:       736.47   44.606968  (  2.898328  -3.668577   4.769508)
  45:       746.41   57.902948  (  2.530445  -4.699147   5.423819)
  46:       765.74    7.364525  (  2.290220   0.661770   1.296718)
  47:       788.67   41.743032  ( -4.925836   0.867459   4.089827)
  48:       807.76    1.834038  ( -0.921213   0.092544   0.988352)
  49:       829.05    1.737816  ( -0.595745   0.580226  -1.022859)
  50:       832.55    0.352949  ( -0.502084  -0.270420  -0.166535)
  51:       855.49   64.875264  (  4.872976   5.544764   3.222570)
  52:       880.73    1.515809  (  1.190626   0.130502  -0.284934)
  53:       883.09    0.116349  (  0.148876   0.008647  -0.306773)
  54:       893.81    3.908630  (  0.398395  -0.139755  -1.931419)
  55:       896.51    9.476963  (  0.735045   1.140244  -2.763425)
  56:       898.36   10.281672  (  1.947830  -2.077398  -1.473786)
  57:       911.89    1.264874  ( -0.453717   0.395427  -0.950080)
  58:       944.19    0.215524  ( -0.394793  -0.235905  -0.063337)
  59:       951.76    0.079913  (  0.202845   0.140021   0.138426)
  60:       974.73   65.246886  (  7.787421   0.878269  -1.957448)
  61:       976.69    0.074118  ( -0.216164  -0.145554   0.078770)
  62:       995.30   13.742307  (  2.685197   2.353588   0.996319)
  63:      1017.37    6.036206  (  1.919940   1.403848   0.615829)
  64:      1031.75    6.500358  ( -0.915278   1.369377   1.946133)
  65:      1049.68  126.567336  (-10.258069   0.753309   4.557617)
  66:      1072.35    9.053005  (  1.490785  -2.356993   1.129224)
  67:      1079.94    9.075055  ( -1.157367   2.031164   1.899981)
  68:      1083.54   22.203622  (  2.996212   3.437544   1.187277)
  69:      1120.94    1.924420  (  0.666058  -1.155738  -0.380863)
  70:      1135.21   95.468815  ( -7.280315  -5.927044  -2.708501)
  71:      1142.88   30.059815  ( -3.436400  -3.538909  -2.393134)
  72:      1155.60    0.931724  ( -0.688324   0.174136   0.653920)
  73:      1158.90    0.475480  (  0.509101   0.461214   0.059811)
  74:      1165.97   40.165821  (  4.864270   3.853637   1.286147)
  75:      1184.17   37.036638  (  0.919096  -4.064310  -4.435457)
  76:      1198.54   48.560718  (  6.121629   3.178949   0.990280)
  77:      1248.62   23.416849  ( -4.642577  -0.768633   1.128064)
  78:      1266.99  112.318535  (  8.944093  -2.178187  -5.251403)
  79:      1280.44   50.430678  (  3.527023  -3.744047  -4.896212)
  80:      1298.45    0.063867  ( -0.126264   0.117449  -0.184745)
  81:      1314.06   32.084827  ( -2.023383   3.310551   4.126864)
  82:      1339.14    6.152508  ( -1.944696  -0.641165   1.399847)
  83:      1343.02    5.054233  (  2.000935  -0.995214  -0.245034)
  84:      1348.83    6.163509  (  1.910415   0.264748  -1.563244)
  85:      1381.58   10.013753  ( -1.134187  -0.348473   2.933588)
  86:      1384.42  100.610468  ( -3.474549   7.164761   6.099523)
  87:      1428.50   72.204561  ( -8.108906  -2.538283   0.085544)
  88:      1447.76   10.928550  ( -0.946797  -3.166745   0.062055)
  89:      1453.06   19.015804  ( -1.180336  -2.399826  -3.444335)
  90:      1461.82   17.526779  ( -1.741651   2.625524   2.756820)
  91:      1471.82   52.805773  ( -5.341507  -4.161535  -2.637366)
  92:      1487.74  191.315595  (  9.961621  -4.903644  -8.248392)
  93:      1566.83    8.342917  ( -1.960773  -1.690696  -1.280559)
  94:      1574.00  366.995874  ( 17.202813  -3.078834  -7.847285)
  95:      1578.80   21.721213  (  2.681700  -2.449002  -2.920973)
  96:      1596.80   21.782769  ( -3.480456  -1.527939   2.708246)
  97:      1608.65   39.479753  ( -5.696615   1.914094   1.834276)
  98:      2890.64    4.501675  ( -0.242440  -2.023610   0.589830)
  99:      3031.74    2.882582  (  0.764464  -1.432482   0.496158)
 100:      3090.30    2.038610  ( -1.369198  -0.233827   0.330500)
 101:      3104.99    0.056004  (  0.070673  -0.076336  -0.212561)
 102:      3113.78    2.200757  (  1.127201   0.926372   0.268347)
 103:      3119.03    0.564348  (  0.400205  -0.595070   0.223777)
 104:      3120.62    1.049266  (  0.910075  -0.151558  -0.445039)
 105:      3126.14    3.239644  ( -1.626700  -0.249256  -0.728947)
 106:      3129.02    0.602305  ( -0.740702  -0.013108   0.231286)
 107:      3132.69    1.022684  (  0.652200   0.765514   0.106335)
 108:      3136.34    0.622094  (  0.144244  -0.577879  -0.517052)
 109:      3139.26    0.422069  (  0.394112   0.477391   0.197084)
 110:      3143.74    0.202022  ( -0.331898  -0.251205  -0.169593)
 111:      3156.81    0.050353  ( -0.137483  -0.111123   0.138213)
 112:      3173.49    0.291330  (  0.040488  -0.393423  -0.367299)
 113:      3189.89    1.193540  ( -1.038942  -0.204435   0.268971)

The first frequency considered to be a vibration is 6
The total number of vibrations considered is 108


--------------------------
THERMOCHEMISTRY AT 298.15K
--------------------------

Temperature         ... 298.15 K
Pressure            ... 1.00 atm
Total Mass          ... 328.34 AMU

Throughout the following assumptions are being made:
  (1) The electronic state is orbitally nondegenerate
      but the spin degeneracy is treated
  (2) There are no thermally accessible electronically excited states
  (3) Hindered rotations indicated by low frequency modes are not
      treated as such but are treated as vibrations and this may
      cause some error
  (4) All equations used are the standard statistical mechanics
      equations for an ideal gas
  (5) All vibrations are strictly harmonic

freq.      20.65  E(vib)   ...       0.56 
freq.      33.76  E(vib)   ...       0.55 
freq.      51.32  E(vib)   ...       0.52 
freq.      65.40  E(vib)   ...       0.50 
freq.      69.00  E(vib)   ...       0.50 
freq.      75.81  E(vib)   ...       0.49 
freq.      90.34  E(vib)   ...       0.47 
freq.     133.07  E(vib)   ...       0.42 
freq.     143.74  E(vib)   ...       0.41 
freq.     163.31  E(vib)   ...       0.39 
freq.     192.60  E(vib)   ...       0.36 
freq.     193.61  E(vib)   ...       0.36 
freq.     216.54  E(vib)   ...       0.34 
freq.     223.14  E(vib)   ...       0.33 
freq.     271.46  E(vib)   ...       0.29 
freq.     303.55  E(vib)   ...       0.26 
freq.     321.02  E(vib)   ...       0.25 
freq.     362.12  E(vib)   ...       0.22 
freq.     367.23  E(vib)   ...       0.22 
freq.     379.24  E(vib)   ...       0.21 
freq.     406.01  E(vib)   ...       0.19 
freq.     408.33  E(vib)   ...       0.19 
freq.     444.89  E(vib)   ...       0.17 
freq.     470.99  E(vib)   ...       0.15 
freq.     477.06  E(vib)   ...       0.15 
freq.     536.26  E(vib)   ...       0.12 
freq.     565.67  E(vib)   ...       0.11 
freq.     571.75  E(vib)   ...       0.11 
freq.     581.68  E(vib)   ...       0.11 
freq.     587.76  E(vib)   ...       0.10 
freq.     605.47  E(vib)   ...       0.10 
freq.     608.45  E(vib)   ...       0.10 
freq.     625.91  E(vib)   ...       0.09 
freq.     650.89  E(vib)   ...       0.08 
freq.     668.19  E(vib)   ...       0.08 
freq.     684.98  E(vib)   ...       0.07 
freq.     711.93  E(vib)   ...       0.07 
freq.     731.17  E(vib)   ...       0.06 
freq.     736.47  E(vib)   ...       0.06 
freq.     746.41  E(vib)   ...       0.06 
freq.     765.74  E(vib)   ...       0.06 
freq.     788.67  E(vib)   ...       0.05 
freq.     807.76  E(vib)   ...       0.05 
freq.     829.05  E(vib)   ...       0.04 
freq.     832.55  E(vib)   ...       0.04 
freq.     855.49  E(vib)   ...       0.04 
freq.     880.73  E(vib)   ...       0.04 
freq.     883.09  E(vib)   ...       0.04 
freq.     893.81  E(vib)   ...       0.03 
freq.     896.51  E(vib)   ...       0.03 
freq.     898.36  E(vib)   ...       0.03 
freq.     911.89  E(vib)   ...       0.03 
freq.     944.19  E(vib)   ...       0.03 
freq.     951.76  E(vib)   ...       0.03 
freq.     974.73  E(vib)   ...       0.03 
freq.     976.69  E(vib)   ...       0.03 
freq.     995.30  E(vib)   ...       0.02 
freq.    1017.37  E(vib)   ...       0.02 
freq.    1031.75  E(vib)   ...       0.02 
freq.    1049.68  E(vib)   ...       0.02 
freq.    1072.35  E(vib)   ...       0.02 
freq.    1079.94  E(vib)   ...       0.02 
freq.    1083.54  E(vib)   ...       0.02 
freq.    1120.94  E(vib)   ...       0.01 
freq.    1135.21  E(vib)   ...       0.01 
freq.    1142.88  E(vib)   ...       0.01 
freq.    1155.60  E(vib)   ...       0.01 
freq.    1158.90  E(vib)   ...       0.01 
freq.    1165.97  E(vib)   ...       0.01 
freq.    1184.17  E(vib)   ...       0.01 
freq.    1198.54  E(vib)   ...       0.01 
freq.    1248.62  E(vib)   ...       0.01 
freq.    1266.99  E(vib)   ...       0.01 
freq.    1280.44  E(vib)   ...       0.01 
freq.    1298.45  E(vib)   ...       0.01 
freq.    1314.06  E(vib)   ...       0.01 
freq.    1339.14  E(vib)   ...       0.01 
freq.    1343.02  E(vib)   ...       0.01 
freq.    1348.83  E(vib)   ...       0.01 
freq.    1381.58  E(vib)   ...       0.01 
freq.    1384.42  E(vib)   ...       0.00 
freq.    1428.50  E(vib)   ...       0.00 
freq.    1447.76  E(vib)   ...       0.00 
freq.    1453.06  E(vib)   ...       0.00 
freq.    1461.82  E(vib)   ...       0.00 
freq.    1471.82  E(vib)   ...       0.00 
freq.    1487.74  E(vib)   ...       0.00 
freq.    1566.83  E(vib)   ...       0.00 
freq.    1574.00  E(vib)   ...       0.00 
freq.    1578.80  E(vib)   ...       0.00 
freq.    1596.80  E(vib)   ...       0.00 
freq.    1608.65  E(vib)   ...       0.00 
freq.    2890.64  E(vib)   ...       0.00 
freq.    3031.74  E(vib)   ...       0.00 
freq.    3090.30  E(vib)   ...       0.00 
freq.    3104.99  E(vib)   ...       0.00 
freq.    3113.78  E(vib)   ...       0.00 
freq.    3119.03  E(vib)   ...       0.00 
freq.    3120.62  E(vib)   ...       0.00 
freq.    3126.14  E(vib)   ...       0.00 
freq.    3129.02  E(vib)   ...       0.00 
freq.    3132.69  E(vib)   ...       0.00 
freq.    3136.34  E(vib)   ...       0.00 
freq.    3139.26  E(vib)   ...       0.00 
freq.    3143.74  E(vib)   ...       0.00 
freq.    3156.81  E(vib)   ...       0.00 
freq.    3173.49  E(vib)   ...       0.00 
freq.    3189.89  E(vib)   ...       0.00 

------------
INNER ENERGY
------------

The inner energy is: U= E(el) + E(ZPE) + E(vib) + E(rot) + E(trans)
    E(el)   - is the total energy from the electronic structure calculation
              = E(kin-el) + E(nuc-el) + E(el-el) + E(nuc-nuc)
    E(ZPE)  - the the zero temperature vibrational energy from the frequency calculation
    E(vib)  - the the finite temperature correction to E(ZPE) due to population
              of excited vibrational states
    E(rot)  - is the rotational thermal energy
    E(trans)- is the translational thermal energy

Summary of contributions to the inner energy U:
Electronic energy                ...  -1925.14529269 Eh
Zero point energy                ...      0.28673054 Eh     179.93 kcal/mol
Thermal vibrational correction   ...      0.01715347 Eh      10.76 kcal/mol
Thermal rotational correction    ...      0.00141627 Eh       0.89 kcal/mol
Thermal translational correction ...      0.00141627 Eh       0.89 kcal/mol
-----------------------------------------------------------------------
Total thermal energy                  -1924.83857614 Eh


Summary of corrections to the electronic energy:
(perhaps to be used in another calculation)
Total thermal correction                  0.01998602 Eh      12.54 kcal/mol
Non-thermal (ZPE) correction              0.28673054 Eh     179.93 kcal/mol
-----------------------------------------------------------------------
Total correction                          0.30671655 Eh     192.47 kcal/mol


--------
ENTHALPY
--------

The enthalpy is H = U + kB*T
                kB is Boltzmann's constant
Total free energy                 ...  -1924.83857614 Eh 
Thermal Enthalpy correction       ...      0.00094421 Eh       0.59 kcal/mol
-----------------------------------------------------------------------
Total Enthalpy                    ...  -1924.83763193 Eh


Note: Only C1 symmetry has been detected, increase convergence thresholds 
      if your molecule has a higher symmetry. Symmetry factor of 1.0 is   
      used for the rotational entropy correction. 
 

Note: Rotational entropy computed according to Herzberg 
Infrared and Raman Spectra, Chapter V,1, Van Nostrand Reinhold, 1945 
Point Group:  C1, Symmetry Number:   1  
Rotational constants in cm-1:     0.013217     0.006916     0.004890 

Vibrational entropy computed according to the QRRHO of S. Grimme
Chem.Eur.J. 2012 18 9955


-------
ENTROPY
-------

The entropy contributions are T*S = T*(S(el)+S(vib)+S(rot)+S(trans))
     S(el)   - electronic entropy
     S(vib)  - vibrational entropy
     S(rot)  - rotational entropy
     S(trans)- translational entropy
The entropies will be listed as mutliplied by the temperature to get
units of energy

Electronic entropy                ...      0.00130891 Eh      0.82 kcal/mol
Vibrational entropy               ...      0.03003097 Eh     18.84 kcal/mol
Rotational entropy                ...      0.01641318 Eh     10.30 kcal/mol
Translational entropy             ...      0.02055501 Eh     12.90 kcal/mol
-----------------------------------------------------------------------
Final entropy term                ...      0.06830808 Eh     42.86 kcal/mol

In case the symmetry of your molecule has not been determined correctly
or in case you have a reason to use a different symmetry number we print 
out the resulting rotational entropy values for sn=1,12 :
 --------------------------------------------------------
|  sn= 1 | S(rot)=       0.01641318 Eh     10.30 kcal/mol|
|  sn= 2 | S(rot)=       0.01575872 Eh      9.89 kcal/mol|
|  sn= 3 | S(rot)=       0.01537589 Eh      9.65 kcal/mol|
|  sn= 4 | S(rot)=       0.01510426 Eh      9.48 kcal/mol|
|  sn= 5 | S(rot)=       0.01489358 Eh      9.35 kcal/mol|
|  sn= 6 | S(rot)=       0.01472143 Eh      9.24 kcal/mol|
|  sn= 7 | S(rot)=       0.01457589 Eh      9.15 kcal/mol|
|  sn= 8 | S(rot)=       0.01444981 Eh      9.07 kcal/mol|
|  sn= 9 | S(rot)=       0.01433860 Eh      9.00 kcal/mol|
|  sn=10 | S(rot)=       0.01423912 Eh      8.94 kcal/mol|
|  sn=11 | S(rot)=       0.01414913 Eh      8.88 kcal/mol|
|  sn=12 | S(rot)=       0.01406698 Eh      8.83 kcal/mol|
 --------------------------------------------------------


-------------------
GIBBS FREE ENERGY
-------------------

The Gibbs free energy is G = H - T*S

Total enthalpy                    ...  -1924.83763193 Eh 
Total entropy correction          ...     -0.06830808 Eh    -42.86 kcal/mol
-----------------------------------------------------------------------
Final Gibbs free energy         ...  -1924.90594001 Eh

For completeness - the Gibbs free energy minus the electronic energy
G-E(el)                           ...      0.23935269 Eh    150.20 kcal/mol


Timings for individual modules:

Sum of individual times         ...    32681.838 sec (= 544.697 min)
GTO integral calculation        ...       12.079 sec (=   0.201 min)   0.0 %
SCF iterations                  ...       85.303 sec (=   1.422 min)   0.3 %
Analytical frequency calculation...    32584.456 sec (= 543.074 min)  99.7 %
                             ****ORCA TERMINATED NORMALLY****
TOTAL RUN TIME: 0 days 9 hours 4 minutes 43 seconds 208 msec
