
                                 *****************
                                 * O   R   C   A *
                                 *****************

           --- An Ab Initio, DFT and Semiempirical electronic structure package ---

                  #######################################################
                  #                        -***-                        #
                  #          Department of theory and spectroscopy      #
                  #               Directorship: Frank Neese             #
                  #        Max Planck Institute fuer Kohlenforschung    #
                  #                Kaiser Wilhelm Platz 1               #
                  #                 D-45470 Muelheim/Ruhr               #
                  #                      Germany                        #
                  #                                                     #
                  #                  All rights reserved                #
                  #                        -***-                        #
                  #######################################################


                         Program Version 4.2.1 -  RELEASE  -


 With contributions from (in alphabetic order):
   Daniel Aravena         : Magnetic Suceptibility
   Michael Atanasov       : Ab Initio Ligand Field Theory (pilot matlab implementation)
   Alexander A. Auer      : GIAO ZORA, VPT2
   Ute Becker             : Parallelization
   Giovanni Bistoni       : ED, misc. LED, open-shell LED, HFLD
   Martin Brehm           : Molecular dynamics
   Dmytro Bykov           : SCF Hessian
   Vijay G. Chilkuri      : MRCI spin determinant printing, contributions to CSF-ICE
   Dipayan Datta          : RHF DLPNO-CCSD density
   Achintya Kumar Dutta   : EOM-CC, STEOM-CC
   Dmitry Ganyushin       : Spin-Orbit,Spin-Spin,Magnetic field MRCI
   Miquel Garcia          : C-PCM Hessian, Gaussian charge scheme
   Yang Guo               : DLPNO-NEVPT2, CIM, IAO-localization
   Andreas Hansen         : Spin unrestricted coupled pair/coupled cluster methods
   Benjamin Helmich-Paris : CASSCF linear response (MC-RPA)
   Lee Huntington         : MR-EOM, pCC
   Robert Izsak           : Overlap fitted RIJCOSX, COSX-SCS-MP3, EOM
   Christian Kollmar      : KDIIS, OOCD, Brueckner-CCSD(T), CCSD density
   Simone Kossmann        : Meta GGA functionals, TD-DFT gradient, OOMP2, MP2 Hessian
   Martin Krupicka        : AUTO-CI
   Lucas Lang             : DCDCAS
   Dagmar Lenk            : GEPOL surface, SMD
   Dimitrios Liakos       : Extrapolation schemes; Compound Job, initial MDCI parallelization
   Dimitrios Manganas     : Further ROCIS development; embedding schemes
   Dimitrios Pantazis     : SARC Basis sets
   Taras Petrenko         : DFT Hessian,TD-DFT gradient, ASA, ECA, R-Raman, ABS, FL, XAS/XES, NRVS
   Peter Pinski           : DLPNO-MP2, DLPNO-MP2 Gradient
   Christoph Reimann      : Effective Core Potentials
   Marius Retegan         : Local ZFS, SOC
   Christoph Riplinger    : Optimizer, TS searches, QM/MM, DLPNO-CCSD(T), (RO)-DLPNO pert. Triples
   Tobias Risthaus        : Range-separated hybrids, TD-DFT gradient, RPA, STAB
   Michael Roemelt        : Original ROCIS implementation
   Masaaki Saitow         : Open-shell DLPNO-CCSD energy and density
   Barbara Sandhoefer     : DKH picture change effects
   Avijit Sen             : IP-ROCIS
   Kantharuban Sivalingam : CASSCF convergence, NEVPT2, FIC-MRCI
   Bernardo de Souza      : ESD, SOC TD-DFT
   Georgi Stoychev        : AutoAux, RI-MP2 NMR
   Willem Van den Heuvel  : Paramagnetic NMR
   Boris Wezisla          : Elementary symmetry handling
   Frank Wennmohs         : Technical directorship


 We gratefully acknowledge several colleagues who have allowed us to
 interface, adapt or use parts of their codes:
   Stefan Grimme, W. Hujo, H. Kruse,             : VdW corrections, initial TS optimization,
                  C. Bannwarth                     DFT functionals, gCP, sTDA/sTD-DF
   Ed Valeev, F. Pavosevic, A. Kumar             : LibInt (2-el integral package), F12 methods
   Garnet Chan, S. Sharma, J. Yang, R. Olivares  : DMRG
   Ulf Ekstrom                                   : XCFun DFT Library
   Mihaly Kallay                                 : mrcc  (arbitrary order and MRCC methods)
   Andreas Klamt, Michael Diedenhofen            : otool_cosmo (COSMO solvation model)
   Jiri Pittner, Ondrej Demel                    : Mk-CCSD
   Frank Weinhold                                : gennbo (NPA and NBO analysis)
   Christopher J. Cramer and Donald G. Truhlar   : smd solvation model
   Lars Goerigk                                  : TD-DFT with DH, B97 family of functionals
   V. Asgeirsson, H. Jonsson                     : NEB implementation
   FAccTs GmbH                                   : IRC, NEB, NEB-TS, Multilevel, MM, QM/MM, CI optimization
   S Lehtola, MJT Oliveira, MAL Marques          : LibXC Library


 Your calculation uses the libint2 library for the computation of 2-el integrals
 For citations please refer to: http://libint.valeyev.net

 Your ORCA version has been built with support for libXC version: 4.2.3
 For citations please refer to: https://tddft.org/programs/libxc/

 This ORCA versions uses:
   CBLAS   interface :  Fast vector & matrix operations
   LAPACKE interface :  Fast linear algebra routines
   SCALAPACK package :  Parallel linear algebra routines


Your calculation utilizes the atom-pairwise dispersion correction
with the Becke-Johnson damping scheme (D3BJ)
Cite in your paper:
S.Grimme, S.Ehrlich, L.Goerigk, J Comput Chem, (2011), 32, 1456–1465 
S.Grimme, J.Antony, S.Ehrlich and H.Krieg, J.Chem.Phys., 132, (2010), 154104 
   

----- Orbital basis set information -----
Your calculation utilizes the basis: def2-TZVP
   F. Weigend and R. Ahlrichs, Phys. Chem. Chem. Phys. 7, 3297 (2005).

----- AuxJ basis set information -----
Your calculation utilizes the auxiliary basis: def2/J
   F. Weigend, Phys. Chem. Chem. Phys. 8, 1057 (2006).

================================================================================
                                        WARNINGS
                       Please study these warnings very carefully!
================================================================================


WARNING: your system is open-shell and RHF/RKS was chosen
  ===> : WILL SWITCH to UHF/UKS


INFO   : the flag for use of LIBINT has been found!

================================================================================
                                       INPUT FILE
================================================================================
NAME = Cr2A_Freq.inp
|  1> #
|  2> # ORCA calc attempt 1 :-)
|  3> #
|  4> ! BP86 D3BJ RIJCOSX def2-TZVP def2/J Grid6 FinalGrid6 MORead TightSCF Freq 
|  5> %moinp "Cr2A_Tight.ges"
|  6> * xyz 1 4
|  7>   Cr  0.10144799434959     -2.18018613423685     -1.44724959538178
|  8>   O   -1.64016133391648     -2.22208642844092     -0.34569451628123
|  9>   N   0.41196163070254     -0.69395928856028     -0.24528364874298
| 10>   N   2.00959197371174     -1.94863883909233     -1.86804865611078
| 11>   C   -2.78486252267200     -2.90962053706220     -0.84050022468711
| 12>   C   -2.79678197046669     -4.29011197293731     -0.67955374903593
| 13>   C   -3.78503022154948     -2.21548299584227     -1.51459124765720
| 14>   C   -3.86062476550914     -5.01061452562067     -1.23153752786670
| 15>   H   -2.00169395363613     -4.78453515842185     -0.12035329971675
| 16>   C   -4.84488525914191     -2.95050765140527     -2.04858393942947
| 17>   H   -3.74101303957401     -1.13119473918277     -1.61171505978924
| 18>   C   -4.88076704671162     -4.34243220985051     -1.91202333041252
| 19>   H   -3.89316514629078     -6.09375489645344     -1.11644894957301
| 20>   H   -5.71118541360073     -4.90692427785236     -2.33534265248841
| 21>   H   -5.64232704779778     -2.43116279580468     -2.57976588213998
| 22>   C   -1.78908336048128     -1.10451803544352      0.51686694195038
| 23>   C   -0.64949790895446     -0.28369330699798      0.57066008152491
| 24>   C   -0.66933751036254      0.82766796311767      1.42391545819153
| 25>   C   -2.91796169110874     -0.87336055459970      1.28274645089380
| 26>   C   -2.91852275608065      0.24192473233208      2.12839203681394
| 27>   H   -3.77561234495212     -1.54191598343209      1.22690166124381
| 28>   C   -1.80429206974907      1.08419843392370      2.19297153360991
| 29>   H   0.19251216262255      1.49168960033490      1.48174402583840
| 30>   H   -3.79652097382438      0.44713935081409      2.73945419880493
| 31>   H   -1.81795737073580      1.95248260904556      2.85085823991480
| 32>   C   1.65478729870800     -0.20184206849547     -0.29797597005983
| 33>   C   2.53526350303830     -0.84587144127715     -1.16877496214519
| 34>   C   3.00884662811683     -2.43615553556914     -2.63974794338110
| 35>   C   4.18820939643496     -1.67996096009493     -2.45516491379123
| 36>   H   2.85470517502304     -3.29167319009914     -3.29313086121077
| 37>   C   3.89351888944621     -0.67590281339086     -1.53048555481523
| 38>   H   4.56682737565445      0.08616739509644     -1.14917533084533
| 39>   H   5.13834248527415     -1.85890570100360     -2.94814136368914
| 40>   H   1.95466779167100      0.64574245749044      0.32210255993880
| 41>   C   -0.66345853434921     -1.51591157752773     -3.14820252712893
| 42>   H   0.01182692551524     -0.84181650874107     -3.68663955453235
| 43>   H   -1.65766932692809     -1.07129067821733     -3.01450573969183
| 44>   H   -0.75511766187546     -2.47798173650133     -3.69642618812111
| 45> *
| 46> 
| 47>                          ****END OF INPUT****
================================================================================

                       ****************************
                       * Single Point Calculation *
                       ****************************

---------------------------------
CARTESIAN COORDINATES (ANGSTROEM)
---------------------------------
  Cr     0.101448   -2.180186   -1.447250
  O     -1.640161   -2.222086   -0.345695
  N      0.411962   -0.693959   -0.245284
  N      2.009592   -1.948639   -1.868049
  C     -2.784863   -2.909621   -0.840500
  C     -2.796782   -4.290112   -0.679554
  C     -3.785030   -2.215483   -1.514591
  C     -3.860625   -5.010615   -1.231538
  H     -2.001694   -4.784535   -0.120353
  C     -4.844885   -2.950508   -2.048584
  H     -3.741013   -1.131195   -1.611715
  C     -4.880767   -4.342432   -1.912023
  H     -3.893165   -6.093755   -1.116449
  H     -5.711185   -4.906924   -2.335343
  H     -5.642327   -2.431163   -2.579766
  C     -1.789083   -1.104518    0.516867
  C     -0.649498   -0.283693    0.570660
  C     -0.669338    0.827668    1.423915
  C     -2.917962   -0.873361    1.282746
  C     -2.918523    0.241925    2.128392
  H     -3.775612   -1.541916    1.226902
  C     -1.804292    1.084198    2.192972
  H      0.192512    1.491690    1.481744
  H     -3.796521    0.447139    2.739454
  H     -1.817957    1.952483    2.850858
  C      1.654787   -0.201842   -0.297976
  C      2.535264   -0.845871   -1.168775
  C      3.008847   -2.436156   -2.639748
  C      4.188209   -1.679961   -2.455165
  H      2.854705   -3.291673   -3.293131
  C      3.893519   -0.675903   -1.530486
  H      4.566827    0.086167   -1.149175
  H      5.138342   -1.858906   -2.948141
  H      1.954668    0.645742    0.322103
  C     -0.663459   -1.515912   -3.148203
  H      0.011827   -0.841817   -3.686640
  H     -1.657669   -1.071291   -3.014506
  H     -0.755118   -2.477982   -3.696426

----------------------------
CARTESIAN COORDINATES (A.U.)
----------------------------
  NO LB      ZA    FRAG     MASS         X           Y           Z
   0 Cr   24.0000    0    52.000    0.191709   -4.119955   -2.734905
   1 O     8.0000    0    15.999   -3.099456   -4.199135   -0.653268
   2 N     7.0000    0    14.007    0.778495   -1.311393   -0.463519
   3 N     7.0000    0    14.007    3.797578   -3.682394   -3.530100
   4 C     6.0000    0    12.011   -5.262627   -5.498386   -1.588315
   5 C     6.0000    0    12.011   -5.285152   -8.107137   -1.284170
   6 C     6.0000    0    12.011   -7.152671   -4.186656   -2.862163
   7 C     6.0000    0    12.011   -7.295524   -9.468689   -2.327269
   8 H     1.0000    0     1.008   -3.782653   -9.041461   -0.227435
   9 C     6.0000    0    12.011   -9.155506   -5.575651   -3.871263
  10 H     1.0000    0     1.008   -7.069490   -2.137648   -3.045700
  11 C     6.0000    0    12.011   -9.223313   -8.206008   -3.613200
  12 H     1.0000    0     1.008   -7.357016  -11.515528   -2.109783
  13 H     1.0000    0     1.008  -10.792576   -9.272743   -4.413158
  14 H     1.0000    0     1.008  -10.662453   -4.594232   -4.875051
  15 C     6.0000    0    12.011   -3.380878   -2.087237    0.976737
  16 C     6.0000    0    12.011   -1.227373   -0.536103    1.078391
  17 C     6.0000    0    12.011   -1.264865    1.564066    2.690810
  18 C     6.0000    0    12.011   -5.514148   -1.650412    2.424039
  19 C     6.0000    0    12.011   -5.515209    0.457171    4.022078
  20 H     1.0000    0     1.008   -7.134873   -2.913799    2.318508
  21 C     6.0000    0    12.011   -3.409618    2.048838    4.144116
  22 H     1.0000    0     1.008    0.363795    2.818885    2.800090
  23 H     1.0000    0     1.008   -7.174385    0.844971    5.176818
  24 H     1.0000    0     1.008   -3.435442    3.689657    5.387341
  25 C     6.0000    0    12.011    3.127095   -0.381426   -0.563093
  26 C     6.0000    0    12.011    4.790954   -1.598465   -2.208665
  27 C     6.0000    0    12.011    5.685896   -4.603667   -4.988401
  28 C     6.0000    0    12.011    7.914569   -3.174666   -4.639589
  29 H     1.0000    0     1.008    5.394611   -6.220361   -6.223115
  30 C     6.0000    0    12.011    7.357684   -1.277271   -2.892199
  31 H     1.0000    0     1.008    8.630053    0.162833   -2.171627
  32 H     1.0000    0     1.008    9.710060   -3.512823   -5.571180
  33 H     1.0000    0     1.008    3.693787    1.220276    0.608686
  34 C     6.0000    0    12.011   -1.253755   -2.864658   -5.949241
  35 H     1.0000    0     1.008    0.022350   -1.590803   -6.966739
  36 H     1.0000    0     1.008   -3.132541   -2.024446   -5.696590
  37 H     1.0000    0     1.008   -1.426966   -4.682707   -6.985233

--------------------------------
INTERNAL COORDINATES (ANGSTROEM)
--------------------------------
 Cr     0   0   0     0.000000000000     0.00000000     0.00000000
 O      1   0   0     2.061160420552     0.00000000     0.00000000
 N      1   2   0     1.936494537057    79.59363506     0.00000000
 N      1   2   3     1.967663448198   159.40514014    35.35807405
 C      2   1   3     1.424035340547   120.22095578   161.51461619
 C      5   2   1     1.389892961988   116.50006178    79.92614694
 C      5   2   1     1.391603772364   120.34606110   263.53411791
 C      6   5   2     1.398417503137   118.20048765   184.21201254
 H      6   5   2     1.090561499124   120.22676584     5.29405500
 C      7   5   2     1.395959218553   117.92581526   176.20281700
 H      7   5   2     1.089518962993   120.70073016   355.68326773
 C      8   6   5     1.396502348180   120.10217392   359.42069107
 H      8   6   5     1.089723506291   119.54742882   180.14182783
 H     12   8   6     1.089699595002   119.87573967   180.37980164
 H     10   7   5     1.089856294011   119.40995187   179.89164340
 C      2   1   3     1.419559492325   113.41420399     8.45118386
 C      3   1   2     1.400278079854   117.70971813   351.86101367
 C     17   3   1     1.401271644010   126.72108670   185.51199627
 C     16   2   1     1.383608141249   123.60501405   175.46970653
 C     19  16   2     1.399634967778   117.89781627   177.77364882
 H     19  16   2     1.088875404254   120.77517958   357.87034072
 C     18  17   3     1.394767715952   119.54716092   181.22806416
 H     18  17   3     1.089519957024   120.29750582     1.66825928
 H     20  19  16     1.089215715925   119.30180042   179.82766734
 H     22  18  17     1.089458153189   119.32447022   180.34833857
 C      3   1   2     1.337748661021   114.00748152   170.84745454
 C     26   3   1     1.395816271582   116.15973878   358.31907986
 C      4   1   2     1.353403924801   142.70669256   145.93982972
 C     28   4   1     1.413080914203   110.42398549   176.55368368
 H     28   4   1     1.087464611878   121.42083373   356.86543395
 C     29  28   4     1.396426573003   107.16615653   359.66260129
 H     31  29  28     1.086044569605   127.31444314   179.64807865
 H     29  28   4     1.085264892531   125.66963477   179.67834457
 H     26   3   1     1.092165382218   121.21270576   179.26004777
 C      1   2   3     1.979793817638    98.02039562   251.28419924
 H     35   1   2     1.095595293229   112.98833667   144.42895131
 H     35   1   2     1.097277392073   112.41671584    16.93749873
 H     35   1   2     1.111093861435    99.51249939   260.96702684

---------------------------
INTERNAL COORDINATES (A.U.)
---------------------------
 Cr     0   0   0     0.000000000000     0.00000000     0.00000000
 O      1   0   0     3.895028712921     0.00000000     0.00000000
 N      1   2   0     3.659444334872    79.59363506     0.00000000
 N      1   2   3     3.718345040822   159.40514014    35.35807405
 C      2   1   3     2.691036798659   120.22095578   161.51461619
 C      5   2   1     2.626517053623   116.50006178    79.92614694
 C      5   2   1     2.629750016700   120.34606110   263.53411791
 C      6   5   2     2.642626101810   118.20048765   184.21201254
 H      6   5   2     2.060862565542   120.22676584     5.29405500
 C      7   5   2     2.637980617187   117.92581526   176.20281700
 H      7   5   2     2.058892457771   120.70073016   355.68326773
 C      8   6   5     2.639006983438   120.10217392   359.42069107
 H      8   6   5     2.059278988586   119.54742882   180.14182783
 H     12   8   6     2.059233802798   119.87573967   180.37980164
 H     10   7   5     2.059529921011   119.40995187   179.89164340
 C      2   1   3     2.682578671302   113.41420399     8.45118386
 C      3   1   2     2.646142082257   117.70971813   351.86101367
 C     17   3   1     2.648019646409   126.72108670   185.51199627
 C     16   2   1     2.614640463624   123.60501405   175.46970653
 C     19  16   2     2.644926776560   117.89781627   177.77364882
 H     19  16   2     2.057676308004   120.77517958   357.87034072
 C     18  17   3     2.635729003584   119.54716092   181.22806416
 H     18  17   3     2.058894336217   120.29750582     1.66825928
 H     20  19  16     2.058319403860   119.30180042   179.82766734
 H     22  18  17     2.058777543896   119.32447022   180.34833857
 C      3   1   2     2.527978605349   114.00748152   170.84745454
 C     26   3   1     2.637710486562   116.15973878   358.31907986
 C      4   1   2     2.557562766449   142.70669256   145.93982972
 C     28   4   1     2.670335932914   110.42398549   176.55368368
 H     28   4   1     2.055010296780   121.42083373   356.86543395
 C     29  28   4     2.638863789105   107.16615653   359.66260129
 H     31  29  28     2.052326805785   127.31444314   179.64807865
 H     29  28   4     2.050853429643   125.66963477   179.67834457
 H     26   3   1     2.063893465342   121.21270576   179.26004777
 C      1   2   3     3.741268116966    98.02039562   251.28419924
 H     35   1   2     2.070375057816   112.98833667   144.42895131
 H     35   1   2     2.073553763962   112.41671584    16.93749873
 H     35   1   2     2.099663107193    99.51249939   260.96702684

---------------------
BASIS SET INFORMATION
---------------------
There are 5 groups of distinct atoms

 Group   1 Type Cr  : 17s11p7d1f contracted to 6s4p4d1f pattern {842111/6311/4111/1}
 Group   2 Type O   : 11s6p2d1f contracted to 5s3p2d1f pattern {62111/411/11/1}
 Group   3 Type N   : 11s6p2d1f contracted to 5s3p2d1f pattern {62111/411/11/1}
 Group   4 Type C   : 11s6p2d1f contracted to 5s3p2d1f pattern {62111/411/11/1}
 Group   5 Type H   : 5s1p contracted to 3s1p pattern {311/1}

Atom   0Cr   basis set group =>   1
Atom   1O    basis set group =>   2
Atom   2N    basis set group =>   3
Atom   3N    basis set group =>   3
Atom   4C    basis set group =>   4
Atom   5C    basis set group =>   4
Atom   6C    basis set group =>   4
Atom   7C    basis set group =>   4
Atom   8H    basis set group =>   5
Atom   9C    basis set group =>   4
Atom  10H    basis set group =>   5
Atom  11C    basis set group =>   4
Atom  12H    basis set group =>   5
Atom  13H    basis set group =>   5
Atom  14H    basis set group =>   5
Atom  15C    basis set group =>   4
Atom  16C    basis set group =>   4
Atom  17C    basis set group =>   4
Atom  18C    basis set group =>   4
Atom  19C    basis set group =>   4
Atom  20H    basis set group =>   5
Atom  21C    basis set group =>   4
Atom  22H    basis set group =>   5
Atom  23H    basis set group =>   5
Atom  24H    basis set group =>   5
Atom  25C    basis set group =>   4
Atom  26C    basis set group =>   4
Atom  27C    basis set group =>   4
Atom  28C    basis set group =>   4
Atom  29H    basis set group =>   5
Atom  30C    basis set group =>   4
Atom  31H    basis set group =>   5
Atom  32H    basis set group =>   5
Atom  33H    basis set group =>   5
Atom  34C    basis set group =>   4
Atom  35H    basis set group =>   5
Atom  36H    basis set group =>   5
Atom  37H    basis set group =>   5
---------------------------------
AUXILIARY/J BASIS SET INFORMATION
---------------------------------
There are 5 groups of distinct atoms

 Group   1 Type Cr  : 19s5p5d3f3g contracted to 8s5p5d2f3g pattern {121111111/11111/11111/21/111}
 Group   2 Type O   : 12s5p4d2f1g contracted to 6s4p3d1f1g pattern {711111/2111/211/2/1}
 Group   3 Type N   : 12s5p4d2f1g contracted to 6s4p3d1f1g pattern {711111/2111/211/2/1}
 Group   4 Type C   : 12s5p4d2f1g contracted to 6s4p3d1f1g pattern {711111/2111/211/2/1}
 Group   5 Type H   : 5s2p1d contracted to 3s1p1d pattern {311/2/1}

Atom   0Cr   basis set group =>   1
Atom   1O    basis set group =>   2
Atom   2N    basis set group =>   3
Atom   3N    basis set group =>   3
Atom   4C    basis set group =>   4
Atom   5C    basis set group =>   4
Atom   6C    basis set group =>   4
Atom   7C    basis set group =>   4
Atom   8H    basis set group =>   5
Atom   9C    basis set group =>   4
Atom  10H    basis set group =>   5
Atom  11C    basis set group =>   4
Atom  12H    basis set group =>   5
Atom  13H    basis set group =>   5
Atom  14H    basis set group =>   5
Atom  15C    basis set group =>   4
Atom  16C    basis set group =>   4
Atom  17C    basis set group =>   4
Atom  18C    basis set group =>   4
Atom  19C    basis set group =>   4
Atom  20H    basis set group =>   5
Atom  21C    basis set group =>   4
Atom  22H    basis set group =>   5
Atom  23H    basis set group =>   5
Atom  24H    basis set group =>   5
Atom  25C    basis set group =>   4
Atom  26C    basis set group =>   4
Atom  27C    basis set group =>   4
Atom  28C    basis set group =>   4
Atom  29H    basis set group =>   5
Atom  30C    basis set group =>   4
Atom  31H    basis set group =>   5
Atom  32H    basis set group =>   5
Atom  33H    basis set group =>   5
Atom  34C    basis set group =>   4
Atom  35H    basis set group =>   5
Atom  36H    basis set group =>   5
Atom  37H    basis set group =>   5
------------------------------------------------------------------------------
                           ORCA GTO INTEGRAL CALCULATION
                           -- RI-GTO INTEGRALS CHOSEN --
------------------------------------------------------------------------------

                         BASIS SET STATISTICS AND STARTUP INFO

Gaussian basis set:
 # of primitive gaussian shells          ...  552
 # of primitive gaussian functions       ... 1186
 # of contracted shells                  ...  310
 # of contracted basis functions         ...  792
 Highest angular momentum                ...    3
 Maximum contraction depth               ...    8
Auxiliary gaussian basis set:
 # of primitive gaussian shells          ...  667
 # of primitive gaussian functions       ... 1833
 # of contracted shells                  ...  418
 # of contracted aux-basis functions     ... 1294
 Highest angular momentum                ...    4
 Maximum contraction depth               ...   12
Ratio of auxiliary to basis functions    ...  1.63
Integral package used                  ... LIBINT
 One Electron integrals                  ... done
 Ordering auxiliary basis shells         ... done
 Integral threshhold             Thresh  ...  2.500e-11
 Primitive cut-off               TCut    ...  2.500e-12
 Pre-screening matrix                    ... done
 Shell pair data                         ... 
 Ordering of the shell pairs             ... done (   0.004 sec) 34813 of 48205 pairs
 Determination of significant pairs      ... done (   0.000 sec)
 Creation of shell pair data             ... done (   0.002 sec)
 Storage of shell pair data              ... done (   0.003 sec)
 Shell pair data done in (   0.009 sec)
 Computing two index integrals           ... done
 Cholesky decomposition of the V-matrix  ... done


Timings:
 Total evaluation time                   ...   0.545 sec (  0.009 min)
 One electron matrix time                ...   0.167 sec (  0.003 min) = 30.6%
 Schwartz matrix evaluation time         ...   0.280 sec (  0.005 min) = 51.4%
 Two index repulsion integral time       ...   0.016 sec (  0.000 min) =  3.0%
 Cholesky decomposition of V             ...   0.028 sec (  0.000 min) =  5.1%
 Three index repulsion integral time     ...   0.000 sec (  0.000 min) =  0.0%

-------------------------------------------------------------------------------
                                 ORCA SCF
-------------------------------------------------------------------------------

------------
SCF SETTINGS
------------
Hamiltonian:
 Density Functional     Method          .... DFT(GTOs)
 Exchange Functional    Exchange        .... B88
   X-Alpha parameter    XAlpha          ....  0.666667
   Becke's b parameter  XBeta           ....  0.004200
 Correlation Functional Correlation     .... P86
 LDA part of GGA corr.  LDAOpt          .... PW91-LDA
 Gradients option       PostSCFGGA      .... off
   Density functional embedding theory  .... OFF
 RI-approximation to the Coulomb term is turned on
   Number of auxiliary basis functions  .... 1294
   RIJ-COSX (HFX calculated with COS-X)).... on


General Settings:
 Integral files         IntName         .... Cr2A_Freq
 Hartree-Fock type      HFTyp           .... UHF
 Total Charge           Charge          ....    1
 Multiplicity           Mult            ....    4
 Number of Electrons    NEL             ....  169
 Basis Dimension        Dim             ....  792
 Nuclear Repulsion      ENuc            ....   2078.0967084046 Eh

Convergence Acceleration:
 DIIS                   CNVDIIS         .... on
   Start iteration      DIISMaxIt       ....    12
   Startup error        DIISStart       ....  0.200000
   # of expansion vecs  DIISMaxEq       ....     5
   Bias factor          DIISBfac        ....   1.050
   Max. coefficient     DIISMaxC        ....  10.000
 Newton-Raphson         CNVNR           .... off
 SOSCF                  CNVSOSCF        .... off
 Level Shifting         CNVShift        .... on
   Level shift para.    LevelShift      ....    0.2500
   Turn off err/grad.   ShiftErr        ....    0.0010
 Zerner damping         CNVZerner       .... off
 Static damping         CNVDamp         .... on
   Fraction old density DampFac         ....    0.7000
   Max. Damping (<1)    DampMax         ....    0.9800
   Min. Damping (>=0)   DampMin         ....    0.0000
   Turn off err/grad.   DampErr         ....    0.1000
 Fernandez-Rico         CNVRico         .... off

SCF Procedure:
 Maximum # iterations   MaxIter         ....   125
 SCF integral mode      SCFMode         .... Direct
   Integral package                     .... LIBINT
 Reset frequency        DirectResetFreq ....    20
 Integral Threshold     Thresh          ....  2.500e-11 Eh
 Primitive CutOff       TCut            ....  2.500e-12 Eh

Convergence Tolerance:
 Convergence Check Mode ConvCheckMode   .... Total+1el-Energy
 Convergence forced     ConvForced      .... 0
 Energy Change          TolE            ....  1.000e-08 Eh
 1-El. energy change                    ....  1.000e-05 Eh
 DIIS Error             TolErr          ....  5.000e-07


Diagonalization of the overlap matrix:
Smallest eigenvalue                        ... 6.118e-06
Time for diagonalization                   ...    0.215 sec
Threshold for overlap eigenvalues          ... 1.000e-08
Number of eigenvalues below threshold      ... 0
Time for construction of square roots      ...    0.037 sec
Total time needed                          ...    0.256 sec

---------------------
INITIAL GUESS: MOREAD
---------------------
Guess MOs are being read from file: Cr2A_Tight.ges
Input Geometry matches current geometry (good)
Input basis set matches current basis set (good)
MOs were renormalized
MOs were reorthogonalized (Cholesky)
                      ------------------
                      INITIAL GUESS DONE (   0.3 sec)
                      ------------------
-------------------
DFT GRID GENERATION
-------------------

General Integration Accuracy     IntAcc      ...  5.340
Radial Grid Type                 RadialGrid  ... Gauss-Chebyshev
Angular Grid (max. acc.)         AngularGrid ... Lebedev-590
Angular grid pruning method      GridPruning ... 3 (G Style)
Weight generation scheme         WeightScheme... Becke
Basis function cutoff            BFCut       ...    1.0000e-11
Integration weight cutoff        WCut        ...    1.0000e-14
Grids for H and He will be reduced by one unit

# of grid points (after initial pruning)     ... 546492 (   0.3 sec)
# of grid points (after weights+screening)   ... 474626 (   2.5 sec)
nearest neighbour list constructed           ...    0.0 sec
Grid point re-assignment to atoms done       ...    0.0 sec
Grid point division into batches done        ...    3.0 sec
Reduced shell lists constructed in    7.8 sec

Total number of grid points                  ...   474626
Total number of batches                      ...     7439
Average number of points per batch           ...       63
Average number of grid points per atom       ...    12490
Average number of shells per batch           ...   122.85 (39.63%)
Average number of basis functions per batch  ...   304.32 (38.42%)
Average number of large shells per batch     ...    80.17 (65.26%)
Average number of large basis fcns per batch ...   200.58 (65.91%)
Maximum spatial batch extension              ...  22.02, 22.60, 23.30 au
Average spatial batch extension              ...   1.61,  1.63,  1.66 au

Time for grid setup =   10.514 sec

--------------------
COSX GRID GENERATION
--------------------

General Integration Accuracy     IntAcc      ...  3.340
Radial Grid Type                 RadialGrid  ... Gauss-Chebyshev
Angular Grid (max. acc.)         AngularGrid ... Lebedev-50
Angular grid pruning method      GridPruning ... 3 (G Style)
Weight generation scheme         WeightScheme... Becke
Basis function cutoff            BFCut       ...    1.0000e-11
Integration weight cutoff        WCut        ...    1.0000e-14
Grids for H and He will be reduced by one unit

# of grid points (after initial pruning)     ...  18314 (   0.0 sec)
# of grid points (after weights+screening)   ...  16566 (   0.1 sec)
nearest neighbour list constructed           ...    0.0 sec
Grid point re-assignment to atoms done       ...    0.0 sec
Grid point division into batches done        ...    0.0 sec
Reduced shell lists constructed in    0.2 sec

Total number of grid points                  ...    16566
Total number of batches                      ...      277
Average number of points per batch           ...       59
Average number of grid points per atom       ...      436
Average number of shells per batch           ...   155.87 (50.28%)
Average number of basis functions per batch  ...   395.18 (49.90%)
Average number of large shells per batch     ...   105.41 (67.63%)
Average number of large basis fcns per batch ...   269.22 (68.13%)
Maximum spatial batch extension              ...  17.91, 19.12, 19.36 au
Average spatial batch extension              ...   4.44,  4.72,  5.17 au

Overlap Fitting                  UseSFitting ... on
Constructing numerical overlap ... done (      0.2 sec)
Inverting numerical overlap    ... done (      0.0 sec)
Obtaining analytic overlap     ... done (      0.0 sec)
Final contraction and storage  ... done (      0.0 sec)


General Integration Accuracy     IntAcc      ...  3.670
Radial Grid Type                 RadialGrid  ... Gauss-Chebyshev
Angular Grid (max. acc.)         AngularGrid ... Lebedev-50
Angular grid pruning method      GridPruning ... 3 (G Style)
Weight generation scheme         WeightScheme... Becke
Basis function cutoff            BFCut       ...    1.0000e-11
Integration weight cutoff        WCut        ...    1.0000e-14
Grids for H and He will be reduced by one unit

# of grid points (after initial pruning)     ...  23080 (   0.0 sec)
# of grid points (after weights+screening)   ...  20817 (   0.1 sec)
nearest neighbour list constructed           ...    0.0 sec
Grid point re-assignment to atoms done       ...    0.0 sec
Grid point division into batches done        ...    0.0 sec
Reduced shell lists constructed in    0.3 sec

Total number of grid points                  ...    20817
Total number of batches                      ...      341
Average number of points per batch           ...       61
Average number of grid points per atom       ...      548
Average number of shells per batch           ...   152.25 (49.11%)
Average number of basis functions per batch  ...   385.29 (48.65%)
Average number of large shells per batch     ...   102.31 (67.20%)
Average number of large basis fcns per batch ...   260.77 (67.68%)
Maximum spatial batch extension              ...  19.47, 22.63, 22.63 au
Average spatial batch extension              ...   4.10,  4.41,  4.74 au

Overlap Fitting                  UseSFitting ... on
Constructing numerical overlap ... done (      0.2 sec)
Inverting numerical overlap    ... done (      0.0 sec)
Obtaining analytic overlap     ... done (      0.0 sec)
Final contraction and storage  ... done (      0.0 sec)


General Integration Accuracy     IntAcc      ...  4.010
Radial Grid Type                 RadialGrid  ... Gauss-Chebyshev
Angular Grid (max. acc.)         AngularGrid ... Lebedev-110
Angular grid pruning method      GridPruning ... 3 (G Style)
Weight generation scheme         WeightScheme... Becke
Basis function cutoff            BFCut       ...    1.0000e-11
Integration weight cutoff        WCut        ...    1.0000e-14
Grids for H and He will be reduced by one unit

# of grid points (after initial pruning)     ...  44074 (   0.0 sec)
# of grid points (after weights+screening)   ...  39522 (   0.2 sec)
nearest neighbour list constructed           ...    0.0 sec
Grid point re-assignment to atoms done       ...    0.0 sec
Grid point division into batches done        ...    0.0 sec
Reduced shell lists constructed in    0.5 sec

Total number of grid points                  ...    39522
Total number of batches                      ...      636
Average number of points per batch           ...       62
Average number of grid points per atom       ...     1040
Average number of shells per batch           ...   145.39 (46.90%)
Average number of basis functions per batch  ...   366.25 (46.24%)
Average number of large shells per batch     ...    97.43 (67.02%)
Average number of large basis fcns per batch ...   247.24 (67.51%)
Maximum spatial batch extension              ...  21.07, 20.88, 21.11 au
Average spatial batch extension              ...   3.50,  3.68,  3.86 au

Overlap Fitting                  UseSFitting ... on
Constructing numerical overlap ... done (      0.4 sec)
Inverting numerical overlap    ... done (      0.0 sec)
Obtaining analytic overlap     ... done (      0.0 sec)
Final contraction and storage  ... done (      0.0 sec)

Time for X-Grid setup             =    2.319 sec
--------------
SCF ITERATIONS
--------------
ITER       Energy         Delta-E        Max-DP      RMS-DP      [F,P]     Damp
               ***  Starting incremental Fock matrix formation  ***
  0  -1925.0521732622   0.000000000000 0.00003411  0.00000034  0.0000008 0.7000
                 **** Energy Check signals convergence ****

               *****************************************************
               *                     SUCCESS                       *
               *           SCF CONVERGED AFTER   1 CYCLES          *
               *****************************************************

Setting up the final grid:

General Integration Accuracy     IntAcc      ...  5.340
Radial Grid Type                 RadialGrid  ... Gauss-Chebyshev
Angular Grid (max. acc.)         AngularGrid ... Lebedev-590
Angular grid pruning method      GridPruning ... 3 (G Style)
Weight generation scheme         WeightScheme... Becke
Basis function cutoff            BFCut       ...    1.0000e-11
Integration weight cutoff        WCut        ...    1.0000e-14
Grids for H and He will be reduced by one unit

# of grid points (after initial pruning)     ... 546492 (   0.1 sec)
# of grid points (after weights+screening)   ... 474626 (   2.4 sec)
nearest neighbour list constructed           ...    0.0 sec
Grid point re-assignment to atoms done       ...    0.0 sec
Grid point division into batches done        ...    3.0 sec
Reduced shell lists constructed in    8.1 sec

Total number of grid points                  ...   474626
Total number of batches                      ...     7439
Average number of points per batch           ...       63
Average number of grid points per atom       ...    12490
Average number of shells per batch           ...   122.85 (39.63%)
Average number of basis functions per batch  ...   304.32 (38.42%)
Average number of large shells per batch     ...    80.17 (65.26%)
Average number of large basis fcns per batch ...   200.58 (65.91%)
Maximum spatial batch extension              ...  22.02, 22.60, 23.30 au
Average spatial batch extension              ...   1.61,  1.63,  1.66 au

Final grid set up in   10.6 sec
Final integration                            ... done (  21.0 sec)
Change in XC energy                          ...    -0.000000268
Integrated number of electrons               ...   169.000042148
Previous integrated no of electrons          ...   169.000042148

----------------
TOTAL SCF ENERGY
----------------

Total Energy       :        -1925.05217353 Eh          -52383.33276 eV

Components:
Nuclear Repulsion  :         2078.09670840 Eh           56547.88627 eV
Electronic Energy  :        -4003.14888193 Eh         -108931.21903 eV
One Electron Energy:        -6741.19610296 Eh         -183437.27173 eV
Two Electron Energy:         2738.04722103 Eh           74506.05270 eV

Virial components:
Potential Energy   :        -3844.11056381 Eh         -104603.56638 eV
Kinetic Energy     :         1919.05839029 Eh           52220.23363 eV
Virial Ratio       :            2.00312329


DFT components:
N(Alpha)           :       86.000020921859 electrons
N(Beta)            :       83.000021226615 electrons
N(Total)           :      169.000042148474 electrons
E(X)               :     -168.305666070848 Eh       
E(C)               :       -6.485020314907 Eh       
E(XC)              :     -174.790686385755 Eh       
DFET-embed. en.    :        0.000000000000 Eh       

---------------
SCF CONVERGENCE
---------------

  Last Energy change         ...    3.2105e-09  Tolerance :   1.0000e-08
  Last MAX-Density change    ...    1.5064e-05  Tolerance :   1.0000e-07
  Last RMS-Density change    ...    1.4974e-07  Tolerance :   5.0000e-09
  Last DIIS Error            ...    5.8842e-07  Tolerance :   5.0000e-07

             **** THE GBW FILE WAS UPDATED (Cr2A_Freq.gbw) ****
             **** DENSITY FILE WAS UPDATED (Cr2A_Freq.scfp) ****
             **** ENERGY FILE WAS UPDATED (Cr2A_Freq.en.tmp) ****
----------------------
UHF SPIN CONTAMINATION
----------------------

Warning: in a DFT calculation there is little theoretical justification to 
         calculate <S**2> as in Hartree-Fock theory. We will do it anyways
         but you should keep in mind that the values have only limited relevance

Expectation value of <S**2>     :     3.805636
Ideal value S*(S+1) for S=1.5   :     3.750000
Deviation                       :     0.055636

             **** THE GBW FILE WAS UPDATED (Cr2A_Freq.gbw) ****
             **** DENSITY FILE WAS UPDATED (Cr2A_Freq.scfp) ****
----------------
ORBITAL ENERGIES
----------------
                 SPIN UP ORBITALS
  NO   OCC          E(Eh)            E(eV) 
   0   1.0000    -214.708800     -5842.5235 
   1   1.0000     -24.440038      -665.0473 
   2   1.0000     -20.805793      -566.1544 
   3   1.0000     -20.802797      -566.0729 
   4   1.0000     -20.800312      -566.0053 
   5   1.0000     -18.993289      -516.8337 
   6   1.0000     -14.176238      -385.7550 
   7   1.0000     -14.147663      -384.9775 
   8   1.0000     -10.102318      -274.8980 
   9   1.0000     -10.100012      -274.8353 
  10   1.0000     -10.094998      -274.6989 
  11   1.0000     -10.080181      -274.2957 
  12   1.0000     -10.059587      -273.7353 
  13   1.0000     -10.056280      -273.6453 
  14   1.0000     -10.036995      -273.1205 
  15   1.0000     -10.036092      -273.0959 
  16   1.0000     -10.035455      -273.0786 
  17   1.0000     -10.035204      -273.0718 
  18   1.0000     -10.029621      -272.9199 
  19   1.0000     -10.029360      -272.9128 
  20   1.0000     -10.029089      -272.9054 
  21   1.0000     -10.027562      -272.8638 
  22   1.0000     -10.025521      -272.8083 
  23   1.0000     -10.024009      -272.7671 
  24   1.0000     -10.016126      -272.5526 
  25   1.0000     -10.007675      -272.3227 
  26   1.0000      -2.921335       -79.4936 
  27   1.0000      -1.918705       -52.2106 
  28   1.0000      -1.912248       -52.0349 
  29   1.0000      -1.904677       -51.8289 
  30   1.0000      -1.153249       -31.3815 
  31   1.0000      -1.024542       -27.8792 
  32   1.0000      -0.997074       -27.1318 
  33   1.0000      -0.921574       -25.0773 
  34   1.0000      -0.907101       -24.6835 
  35   1.0000      -0.846499       -23.0344 
  36   1.0000      -0.827695       -22.5227 
  37   1.0000      -0.820060       -22.3150 
  38   1.0000      -0.812645       -22.1132 
  39   1.0000      -0.800596       -21.7853 
  40   1.0000      -0.782207       -21.2849 
  41   1.0000      -0.735157       -20.0046 
  42   1.0000      -0.730403       -19.8753 
  43   1.0000      -0.717691       -19.5294 
  44   1.0000      -0.688983       -18.7482 
  45   1.0000      -0.674748       -18.3608 
  46   1.0000      -0.663114       -18.0442 
  47   1.0000      -0.650911       -17.7122 
  48   1.0000      -0.629303       -17.1242 
  49   1.0000      -0.618561       -16.8319 
  50   1.0000      -0.609782       -16.5930 
  51   1.0000      -0.594327       -16.1725 
  52   1.0000      -0.588159       -16.0046 
  53   1.0000      -0.573000       -15.5921 
  54   1.0000      -0.563996       -15.3471 
  55   1.0000      -0.540010       -14.6944 
  56   1.0000      -0.536843       -14.6083 
  57   1.0000      -0.529466       -14.4075 
  58   1.0000      -0.525752       -14.3064 
  59   1.0000      -0.518510       -14.1094 
  60   1.0000      -0.513763       -13.9802 
  61   1.0000      -0.507438       -13.8081 
  62   1.0000      -0.504092       -13.7171 
  63   1.0000      -0.488718       -13.2987 
  64   1.0000      -0.482158       -13.1202 
  65   1.0000      -0.477247       -12.9866 
  66   1.0000      -0.475763       -12.9462 
  67   1.0000      -0.474086       -12.9005 
  68   1.0000      -0.469419       -12.7735 
  69   1.0000      -0.461234       -12.5508 
  70   1.0000      -0.449879       -12.2418 
  71   1.0000      -0.446904       -12.1609 
  72   1.0000      -0.445340       -12.1183 
  73   1.0000      -0.439214       -11.9516 
  74   1.0000      -0.436807       -11.8861 
  75   1.0000      -0.429034       -11.6746 
  76   1.0000      -0.391727       -10.6594 
  77   1.0000      -0.372437       -10.1345 
  78   1.0000      -0.369057       -10.0426 
  79   1.0000      -0.366953        -9.9853 
  80   1.0000      -0.364291        -9.9129 
  81   1.0000      -0.353671        -9.6239 
  82   1.0000      -0.349166        -9.5013 
  83   1.0000      -0.341461        -9.2916 
  84   1.0000      -0.324283        -8.8242 
  85   1.0000      -0.308068        -8.3829 
  86   0.0000      -0.260627        -7.0920 
  87   0.0000      -0.244214        -6.6454 
  88   0.0000      -0.211256        -5.7486 
  89   0.0000      -0.178941        -4.8692 
  90   0.0000      -0.176617        -4.8060 
  91   0.0000      -0.163950        -4.4613 
  92   0.0000      -0.162778        -4.4294 
  93   0.0000      -0.144160        -3.9228 
  94   0.0000      -0.108362        -2.9487 
  95   0.0000      -0.099728        -2.7137 
  96   0.0000      -0.084016        -2.2862 
  97   0.0000      -0.080674        -2.1953 
  98   0.0000      -0.079443        -2.1617 
  99   0.0000      -0.073247        -1.9932 
 100   0.0000      -0.065974        -1.7953 
 101   0.0000      -0.056046        -1.5251 
 102   0.0000      -0.050033        -1.3615 
 103   0.0000      -0.045631        -1.2417 
 104   0.0000      -0.038295        -1.0421 
 105   0.0000      -0.033630        -0.9151 
 106   0.0000      -0.032068        -0.8726 
 107   0.0000      -0.026346        -0.7169 
 108   0.0000      -0.020990        -0.5712 
 109   0.0000      -0.019884        -0.5411 
 110   0.0000      -0.017280        -0.4702 
 111   0.0000      -0.015185        -0.4132 
 112   0.0000      -0.010505        -0.2859 
 113   0.0000      -0.009378        -0.2552 
 114   0.0000      -0.003289        -0.0895 
 115   0.0000       0.003722         0.1013 
 116   0.0000       0.005453         0.1484 
 117   0.0000       0.009518         0.2590 
 118   0.0000       0.018881         0.5138 
 119   0.0000       0.022820         0.6210 
 120   0.0000       0.029350         0.7986 
 121   0.0000       0.030654         0.8341 
 122   0.0000       0.039152         1.0654 
 123   0.0000       0.044333         1.2064 
 124   0.0000       0.051331         1.3968 
 125   0.0000       0.052943         1.4407 
 126   0.0000       0.058349         1.5877 
 127   0.0000       0.063119         1.7176 
 128   0.0000       0.064272         1.7489 
 129   0.0000       0.071885         1.9561 
 130   0.0000       0.074022         2.0142 
 131   0.0000       0.083081         2.2607 
 132   0.0000       0.087608         2.3839 
 133   0.0000       0.088217         2.4005 
 134   0.0000       0.092097         2.5061 
 135   0.0000       0.097618         2.6563 
 136   0.0000       0.098658         2.6846 
 137   0.0000       0.101731         2.7682 
 138   0.0000       0.109755         2.9866 
 139   0.0000       0.115121         3.1326 
 140   0.0000       0.117066         3.1855 
 141   0.0000       0.122843         3.3427 
 142   0.0000       0.125566         3.4168 
 143   0.0000       0.127680         3.4744 
 144   0.0000       0.128418         3.4944 
 145   0.0000       0.130738         3.5576 
 146   0.0000       0.137671         3.7462 
 147   0.0000       0.139721         3.8020 
 148   0.0000       0.143315         3.8998 
 149   0.0000       0.154031         4.1914 
 150   0.0000       0.157744         4.2924 
 151   0.0000       0.161501         4.3947 
 152   0.0000       0.164322         4.4714 
 153   0.0000       0.169647         4.6163 
 154   0.0000       0.173584         4.7235 
 155   0.0000       0.179248         4.8776 
 156   0.0000       0.181953         4.9512 
 157   0.0000       0.186213         5.0671 
 158   0.0000       0.193176         5.2566 
 159   0.0000       0.195099         5.3089 
 160   0.0000       0.199940         5.4406 
 161   0.0000       0.204290         5.5590 
 162   0.0000       0.207525         5.6471 
 163   0.0000       0.215451         5.8627 
 164   0.0000       0.219690         5.9781 
 165   0.0000       0.222046         6.0422 
 166   0.0000       0.227356         6.1867 
 167   0.0000       0.233422         6.3517 
 168   0.0000       0.236478         6.4349 
 169   0.0000       0.238923         6.5014 
 170   0.0000       0.246943         6.7197 
 171   0.0000       0.249171         6.7803 
 172   0.0000       0.251474         6.8430 
 173   0.0000       0.255869         6.9626 
 174   0.0000       0.264303         7.1920 
 175   0.0000       0.268379         7.3030 
 176   0.0000       0.270009         7.3473 
 177   0.0000       0.271615         7.3910 
 178   0.0000       0.273934         7.4541 
 179   0.0000       0.279021         7.5925 
 180   0.0000       0.286266         7.7897 
 181   0.0000       0.290559         7.9065 
 182   0.0000       0.292552         7.9607 
 183   0.0000       0.295761         8.0481 
 184   0.0000       0.299584         8.1521 
 185   0.0000       0.300638         8.1808 
 186   0.0000       0.306759         8.3473 
 187   0.0000       0.312261         8.4971 
 188   0.0000       0.314682         8.5629 
 189   0.0000       0.318975         8.6798 
 190   0.0000       0.321809         8.7569 
 191   0.0000       0.328819         8.9476 
 192   0.0000       0.332536         9.0488 
 193   0.0000       0.333666         9.0795 
 194   0.0000       0.340559         9.2671 
 195   0.0000       0.342611         9.3229 
 196   0.0000       0.348043         9.4707 
 197   0.0000       0.348829         9.4921 
 198   0.0000       0.351072         9.5532 
 199   0.0000       0.355654         9.6778 
 200   0.0000       0.358012         9.7420 
 201   0.0000       0.364043         9.9061 
 202   0.0000       0.366965         9.9856 
 203   0.0000       0.371395        10.1062 
 204   0.0000       0.378035        10.2869 
 205   0.0000       0.382638        10.4121 
 206   0.0000       0.385120        10.4796 
 207   0.0000       0.391596        10.6559 
 208   0.0000       0.397576        10.8186 
 209   0.0000       0.405864        11.0441 
 210   0.0000       0.408414        11.1135 
 211   0.0000       0.417375        11.3573 
 212   0.0000       0.421555        11.4711 
 213   0.0000       0.432890        11.7795 
 214   0.0000       0.444812        12.1039 
 215   0.0000       0.447692        12.1823 
 216   0.0000       0.452472        12.3124 
 217   0.0000       0.457118        12.4388 
 218   0.0000       0.459792        12.5116 
 219   0.0000       0.472009        12.8440 
 220   0.0000       0.473826        12.8935 
 221   0.0000       0.481857        13.1120 
 222   0.0000       0.493851        13.4384 
 223   0.0000       0.499029        13.5793 
 224   0.0000       0.502384        13.6706 
 225   0.0000       0.508518        13.8375 
 226   0.0000       0.513000        13.9594 
 227   0.0000       0.514736        14.0067 
 228   0.0000       0.521010        14.1774 
 229   0.0000       0.525046        14.2872 
 230   0.0000       0.532054        14.4779 
 231   0.0000       0.535578        14.5738 
 232   0.0000       0.542188        14.7537 
 233   0.0000       0.546454        14.8698 
 234   0.0000       0.553852        15.0711 
 235   0.0000       0.563388        15.3306 
 236   0.0000       0.565466        15.3871 
 237   0.0000       0.570463        15.5231 
 238   0.0000       0.577216        15.7068 
 239   0.0000       0.579527        15.7697 
 240   0.0000       0.585356        15.9284 
 241   0.0000       0.598306        16.2807 
 242   0.0000       0.600199        16.3322 
 243   0.0000       0.608589        16.5606 
 244   0.0000       0.609082        16.5740 
 245   0.0000       0.616236        16.7686 
 246   0.0000       0.618184        16.8216 
 247   0.0000       0.627146        17.0655 
 248   0.0000       0.632479        17.2106 
 249   0.0000       0.641175        17.4473 
 250   0.0000       0.646987        17.6054 
 251   0.0000       0.651254        17.7215 
 252   0.0000       0.656916        17.8756 
 253   0.0000       0.666713        18.1422 
 254   0.0000       0.668303        18.1854 
 255   0.0000       0.670489        18.2449 
 256   0.0000       0.673638        18.3306 
 257   0.0000       0.688958        18.7475 
 258   0.0000       0.697280        18.9740 
 259   0.0000       0.705488        19.1973 
 260   0.0000       0.721544        19.6342 
 261   0.0000       0.727906        19.8073 
 262   0.0000       0.729659        19.8550 
 263   0.0000       0.736587        20.0435 
 264   0.0000       0.746967        20.3260 
 265   0.0000       0.755217        20.5505 
 266   0.0000       0.767581        20.8869 
 267   0.0000       0.770735        20.9728 
 268   0.0000       0.775978        21.1154 
 269   0.0000       0.780535        21.2394 
 270   0.0000       0.783957        21.3325 
 271   0.0000       0.795334        21.6421 
 272   0.0000       0.800533        21.7836 
 273   0.0000       0.808688        22.0055 
 274   0.0000       0.819616        22.3029 
 275   0.0000       0.821996        22.3676 
 276   0.0000       0.825442        22.4614 
 277   0.0000       0.834236        22.7007 
 278   0.0000       0.846846        23.0438 
 279   0.0000       0.851342        23.1662 
 280   0.0000       0.857238        23.3266 
 281   0.0000       0.865796        23.5595 
 282   0.0000       0.884093        24.0574 
 283   0.0000       0.887535        24.1511 
 284   0.0000       0.896973        24.4079 
 285   0.0000       0.902695        24.5636 
 286   0.0000       0.905819        24.6486 
 287   0.0000       0.911275        24.7970 
 288   0.0000       0.927783        25.2463 
 289   0.0000       0.928409        25.2633 
 290   0.0000       0.937116        25.5002 
 291   0.0000       0.941207        25.6115 
 292   0.0000       0.953397        25.9433 
 293   0.0000       0.967765        26.3342 
 294   0.0000       0.970275        26.4025 
 295   0.0000       0.976387        26.5689 
 296   0.0000       0.982483        26.7347 
 297   0.0000       0.988379        26.8952 
 298   0.0000       0.991408        26.9776 
 299   0.0000       0.993571        27.0364 
 300   0.0000       1.003632        27.3102 
 301   0.0000       1.012246        27.5446 
 302   0.0000       1.026108        27.9218 
 303   0.0000       1.037061        28.2199 
 304   0.0000       1.046231        28.4694 
 305   0.0000       1.047638        28.5077 
 306   0.0000       1.049634        28.5620 
 307   0.0000       1.059915        28.8418 
 308   0.0000       1.061244        28.8779 
 309   0.0000       1.063782        28.9470 
 310   0.0000       1.069677        29.1074 
 311   0.0000       1.074847        29.2481 
 312   0.0000       1.084920        29.5222 
 313   0.0000       1.092562        29.7301 
 314   0.0000       1.094278        29.7768 
 315   0.0000       1.104738        30.0615 
 316   0.0000       1.108887        30.1744 
 317   0.0000       1.114473        30.3264 
 318   0.0000       1.116616        30.3847 
 319   0.0000       1.130752        30.7693 
 320   0.0000       1.138678        30.9850 
 321   0.0000       1.160729        31.5850 
 322   0.0000       1.167506        31.7695 
 323   0.0000       1.170156        31.8416 
 324   0.0000       1.185255        32.2524 
 325   0.0000       1.193034        32.4641 
 326   0.0000       1.206880        32.8409 
 327   0.0000       1.217708        33.1355 
 328   0.0000       1.223421        33.2910 
 329   0.0000       1.230754        33.4905 
 330   0.0000       1.240901        33.7666 
 331   0.0000       1.249634        34.0043 
 332   0.0000       1.254686        34.1417 
 333   0.0000       1.259060        34.2608 
 334   0.0000       1.268894        34.5284 
 335   0.0000       1.272267        34.6202 
 336   0.0000       1.277850        34.7721 
 337   0.0000       1.288993        35.0753 
 338   0.0000       1.296081        35.2682 
 339   0.0000       1.299351        35.3571 
 340   0.0000       1.307782        35.5866 
 341   0.0000       1.319235        35.8982 
 342   0.0000       1.324441        36.0399 
 343   0.0000       1.325526        36.0694 
 344   0.0000       1.333387        36.2833 
 345   0.0000       1.338113        36.4119 
 346   0.0000       1.345840        36.6222 
 347   0.0000       1.352791        36.8113 
 348   0.0000       1.355985        36.8982 
 349   0.0000       1.362945        37.0876 
 350   0.0000       1.370507        37.2934 
 351   0.0000       1.374703        37.4076 
 352   0.0000       1.386292        37.7229 
 353   0.0000       1.390776        37.8449 
 354   0.0000       1.396151        37.9912 
 355   0.0000       1.406093        38.2617 
 356   0.0000       1.407926        38.3116 
 357   0.0000       1.416003        38.5314 
 358   0.0000       1.420648        38.6578 
 359   0.0000       1.430427        38.9239 
 360   0.0000       1.441536        39.2262 
 361   0.0000       1.445450        39.3327 
 362   0.0000       1.448709        39.4214 
 363   0.0000       1.452424        39.5225 
 364   0.0000       1.460997        39.7557 
 365   0.0000       1.468787        39.9677 
 366   0.0000       1.471354        40.0376 
 367   0.0000       1.478466        40.2311 
 368   0.0000       1.481419        40.3115 
 369   0.0000       1.488393        40.5012 
 370   0.0000       1.496860        40.7316 
 371   0.0000       1.503710        40.9180 
 372   0.0000       1.508135        41.0384 
 373   0.0000       1.514850        41.2212 
 374   0.0000       1.518524        41.3211 
 375   0.0000       1.529269        41.6135 
 376   0.0000       1.533333        41.7241 
 377   0.0000       1.537854        41.8471 
 378   0.0000       1.542271        41.9673 
 379   0.0000       1.547407        42.1071 
 380   0.0000       1.557314        42.3767 
 381   0.0000       1.561911        42.5018 
 382   0.0000       1.568541        42.6822 
 383   0.0000       1.571927        42.7743 
 384   0.0000       1.588295        43.2197 
 385   0.0000       1.595546        43.4170 
 386   0.0000       1.604660        43.6650 
 387   0.0000       1.617278        44.0084 
 388   0.0000       1.618875        44.0518 
 389   0.0000       1.626467        44.2584 
 390   0.0000       1.638797        44.5939 
 391   0.0000       1.647440        44.8291 
 392   0.0000       1.655975        45.0614 
 393   0.0000       1.672623        45.5144 
 394   0.0000       1.675319        45.5877 
 395   0.0000       1.694082        46.0983 
 396   0.0000       1.699399        46.2430 
 397   0.0000       1.716869        46.7184 
 398   0.0000       1.733426        47.1689 
 399   0.0000       1.742179        47.4071 
 400   0.0000       1.749842        47.6156 
 401   0.0000       1.767351        48.0921 
 402   0.0000       1.770601        48.1805 
 403   0.0000       1.776962        48.3536 
 404   0.0000       1.792045        48.7640 
 405   0.0000       1.802493        49.0483 
 406   0.0000       1.812141        49.3109 
 407   0.0000       1.822285        49.5869 
 408   0.0000       1.826447        49.7002 
 409   0.0000       1.836795        49.9817 
 410   0.0000       1.847375        50.2696 
 411   0.0000       1.857274        50.5390 
 412   0.0000       1.861865        50.6639 
 413   0.0000       1.867245        50.8103 
 414   0.0000       1.870866        50.9089 
 415   0.0000       1.882423        51.2233 
 416   0.0000       1.889466        51.4150 
 417   0.0000       1.894178        51.5432 
 418   0.0000       1.907076        51.8942 
 419   0.0000       1.920248        52.2526 
 420   0.0000       1.922446        52.3124 
 421   0.0000       1.925646        52.3995 
 422   0.0000       1.936412        52.6924 
 423   0.0000       1.946105        52.9562 
 424   0.0000       1.953384        53.1543 
 425   0.0000       1.959017        53.3076 
 426   0.0000       1.965628        53.4875 
 427   0.0000       1.973418        53.6994 
 428   0.0000       1.980747        53.8989 
 429   0.0000       1.992768        54.2260 
 430   0.0000       2.000856        54.4461 
 431   0.0000       2.014753        54.8242 
 432   0.0000       2.023227        55.0548 
 433   0.0000       2.035563        55.3905 
 434   0.0000       2.039458        55.4965 
 435   0.0000       2.044036        55.6210 
 436   0.0000       2.053131        55.8685 
 437   0.0000       2.066152        56.2228 
 438   0.0000       2.072506        56.3958 
 439   0.0000       2.080951        56.6255 
 440   0.0000       2.095070        57.0097 
 441   0.0000       2.097274        57.0697 
 442   0.0000       2.112721        57.4900 
 443   0.0000       2.125202        57.8297 
 444   0.0000       2.140414        58.2436 
 445   0.0000       2.152520        58.5731 
 446   0.0000       2.172124        59.1065 
 447   0.0000       2.176961        59.2381 
 448   0.0000       2.183517        59.4165 
 449   0.0000       2.199315        59.8464 
 450   0.0000       2.205088        60.0035 
 451   0.0000       2.221573        60.4521 
 452   0.0000       2.223417        60.5023 
 453   0.0000       2.237166        60.8764 
 454   0.0000       2.247019        61.1445 
 455   0.0000       2.254301        61.3427 
 456   0.0000       2.260757        61.5183 
 457   0.0000       2.278958        62.0136 
 458   0.0000       2.287667        62.2506 
 459   0.0000       2.301538        62.6280 
 460   0.0000       2.304435        62.7069 
 461   0.0000       2.323073        63.2140 
 462   0.0000       2.332236        63.4634 
 463   0.0000       2.340308        63.6830 
 464   0.0000       2.348136        63.8960 
 465   0.0000       2.354907        64.0803 
 466   0.0000       2.357517        64.1513 
 467   0.0000       2.373172        64.5773 
 468   0.0000       2.378278        64.7162 
 469   0.0000       2.382437        64.8294 
 470   0.0000       2.390623        65.0521 
 471   0.0000       2.395476        65.1842 
 472   0.0000       2.406982        65.4973 
 473   0.0000       2.413125        65.6645 
 474   0.0000       2.422215        65.9118 
 475   0.0000       2.425189        65.9927 
 476   0.0000       2.428068        66.0711 
 477   0.0000       2.432780        66.1993 
 478   0.0000       2.433951        66.2312 
 479   0.0000       2.436126        66.2904 
 480   0.0000       2.444448        66.5168 
 481   0.0000       2.448986        66.6403 
 482   0.0000       2.459417        66.9241 
 483   0.0000       2.461710        66.9865 
 484   0.0000       2.464473        67.0617 
 485   0.0000       2.475297        67.3563 
 486   0.0000       2.477558        67.4178 
 487   0.0000       2.483857        67.5892 
 488   0.0000       2.486782        67.6688 
 489   0.0000       2.501836        68.0784 
 490   0.0000       2.504781        68.1586 
 491   0.0000       2.507945        68.2446 
 492   0.0000       2.513233        68.3885 
 493   0.0000       2.521777        68.6210 
 494   0.0000       2.528167        68.7949 
 495   0.0000       2.534623        68.9706 
 496   0.0000       2.541559        69.1593 
 497   0.0000       2.544109        69.2287 
 498   0.0000       2.557666        69.5976 
 499   0.0000       2.562607        69.7321 
 500   0.0000       2.568071        69.8808 
 501   0.0000       2.573556        70.0300 
 502   0.0000       2.578199        70.1564 
 503   0.0000       2.588019        70.4236 
 504   0.0000       2.594249        70.5931 
 505   0.0000       2.603288        70.8391 
 506   0.0000       2.606265        70.9201 
 507   0.0000       2.610926        71.0469 
 508   0.0000       2.616506        71.1988 
 509   0.0000       2.622807        71.3702 
 510   0.0000       2.634301        71.6830 
 511   0.0000       2.638133        71.7872 
 512   0.0000       2.648417        72.0671 
 513   0.0000       2.650739        72.1303 
 514   0.0000       2.655072        72.2482 
 515   0.0000       2.658979        72.3545 
 516   0.0000       2.668190        72.6051 
 517   0.0000       2.669269        72.6345 
 518   0.0000       2.674257        72.7702 
 519   0.0000       2.680038        72.9275 
 520   0.0000       2.690995        73.2257 
 521   0.0000       2.701872        73.5217 
 522   0.0000       2.709637        73.7330 
 523   0.0000       2.717637        73.9507 
 524   0.0000       2.722591        74.0855 
 525   0.0000       2.731598        74.3306 
 526   0.0000       2.736350        74.4599 
 527   0.0000       2.736980        74.4770 
 528   0.0000       2.743881        74.6648 
 529   0.0000       2.759747        75.0965 
 530   0.0000       2.765022        75.2401 
 531   0.0000       2.772695        75.4489 
 532   0.0000       2.775986        75.5384 
 533   0.0000       2.780704        75.6668 
 534   0.0000       2.792800        75.9959 
 535   0.0000       2.795904        76.0804 
 536   0.0000       2.800441        76.2039 
 537   0.0000       2.825788        76.8936 
 538   0.0000       2.829477        76.9940 
 539   0.0000       2.839575        77.2688 
 540   0.0000       2.845955        77.4424 
 541   0.0000       2.849846        77.5483 
 542   0.0000       2.856752        77.7362 
 543   0.0000       2.859174        77.8021 
 544   0.0000       2.863833        77.9289 
 545   0.0000       2.882979        78.4498 
 546   0.0000       2.890470        78.6537 
 547   0.0000       2.895120        78.7802 
 548   0.0000       2.903713        79.0141 
 549   0.0000       2.910344        79.1945 
 550   0.0000       2.913773        79.2878 
 551   0.0000       2.913933        79.2921 
 552   0.0000       2.924312        79.5746 
 553   0.0000       2.931456        79.7690 
 554   0.0000       2.932975        79.8103 
 555   0.0000       2.936152        79.8967 
 556   0.0000       2.943079        80.0852 
 557   0.0000       2.947949        80.2178 
 558   0.0000       2.952954        80.3540 
 559   0.0000       2.956888        80.4610 
 560   0.0000       2.960645        80.5632 
 561   0.0000       2.965676        80.7002 
 562   0.0000       2.970000        80.8178 
 563   0.0000       2.981631        81.1343 
 564   0.0000       2.985190        81.2312 
 565   0.0000       2.991223        81.3953 
 566   0.0000       3.007827        81.8471 
 567   0.0000       3.009314        81.8876 
 568   0.0000       3.012934        81.9861 
 569   0.0000       3.031669        82.4959 
 570   0.0000       3.036435        82.6256 
 571   0.0000       3.046916        82.9108 
 572   0.0000       3.052939        83.0747 
 573   0.0000       3.057243        83.1918 
 574   0.0000       3.058841        83.2353 
 575   0.0000       3.063619        83.3653 
 576   0.0000       3.066930        83.4554 
 577   0.0000       3.072693        83.6122 
 578   0.0000       3.076105        83.7051 
 579   0.0000       3.083424        83.9042 
 580   0.0000       3.087900        84.0260 
 581   0.0000       3.099650        84.3458 
 582   0.0000       3.110907        84.6521 
 583   0.0000       3.116544        84.8055 
 584   0.0000       3.119926        84.8975 
 585   0.0000       3.127927        85.1152 
 586   0.0000       3.131212        85.2046 
 587   0.0000       3.143532        85.5399 
 588   0.0000       3.143871        85.5491 
 589   0.0000       3.150036        85.7168 
 590   0.0000       3.160780        86.0092 
 591   0.0000       3.167908        86.2032 
 592   0.0000       3.168980        86.2323 
 593   0.0000       3.175581        86.4120 
 594   0.0000       3.179022        86.5056 
 595   0.0000       3.185773        86.6893 
 596   0.0000       3.188907        86.7746 
 597   0.0000       3.194389        86.9237 
 598   0.0000       3.199029        87.0500 
 599   0.0000       3.204147        87.1893 
 600   0.0000       3.209581        87.3371 
 601   0.0000       3.219129        87.5970 
 602   0.0000       3.223102        87.7051 
 603   0.0000       3.228521        87.8525 
 604   0.0000       3.232508        87.9610 
 605   0.0000       3.241076        88.1942 
 606   0.0000       3.244081        88.2759 
 607   0.0000       3.251465        88.4769 
 608   0.0000       3.259315        88.6905 
 609   0.0000       3.264425        88.8295 
 610   0.0000       3.268162        88.9312 
 611   0.0000       3.277933        89.1971 
 612   0.0000       3.283598        89.3512 
 613   0.0000       3.289844        89.5212 
 614   0.0000       3.291472        89.5655 
 615   0.0000       3.296458        89.7012 
 616   0.0000       3.308365        90.0252 
 617   0.0000       3.309118        90.0457 
 618   0.0000       3.318574        90.3030 
 619   0.0000       3.325302        90.4861 
 620   0.0000       3.329573        90.6023 
 621   0.0000       3.334221        90.7288 
 622   0.0000       3.346763        91.0700 
 623   0.0000       3.369218        91.6811 
 624   0.0000       3.375149        91.8425 
 625   0.0000       3.381680        92.0202 
 626   0.0000       3.395029        92.3834 
 627   0.0000       3.401104        92.5487 
 628   0.0000       3.411327        92.8269 
 629   0.0000       3.435454        93.4835 
 630   0.0000       3.442313        93.6701 
 631   0.0000       3.448709        93.8441 
 632   0.0000       3.455091        94.0178 
 633   0.0000       3.466613        94.3313 
 634   0.0000       3.488922        94.9384 
 635   0.0000       3.499660        95.2306 
 636   0.0000       3.501936        95.2925 
 637   0.0000       3.514043        95.6220 
 638   0.0000       3.528074        96.0038 
 639   0.0000       3.535901        96.2168 
 640   0.0000       3.549390        96.5838 
 641   0.0000       3.561900        96.9242 
 642   0.0000       3.584059        97.5272 
 643   0.0000       3.609127        98.2093 
 644   0.0000       3.617835        98.4463 
 645   0.0000       3.637899        98.9923 
 646   0.0000       3.655867        99.4812 
 647   0.0000       3.684243       100.2534 
 648   0.0000       3.697509       100.6143 
 649   0.0000       3.704277       100.7985 
 650   0.0000       3.721475       101.2665 
 651   0.0000       3.729878       101.4951 
 652   0.0000       3.747127       101.9645 
 653   0.0000       3.767682       102.5238 
 654   0.0000       3.770168       102.5915 
 655   0.0000       3.780342       102.8683 
 656   0.0000       3.787481       103.0626 
 657   0.0000       3.802635       103.4749 
 658   0.0000       3.815446       103.8236 
 659   0.0000       3.831469       104.2596 
 660   0.0000       3.849153       104.7408 
 661   0.0000       3.858479       104.9945 
 662   0.0000       3.873845       105.4127 
 663   0.0000       3.882817       105.6568 
 664   0.0000       3.891236       105.8859 
 665   0.0000       3.893983       105.9607 
 666   0.0000       3.931173       106.9727 
 667   0.0000       3.939043       107.1868 
 668   0.0000       3.951723       107.5319 
 669   0.0000       3.962114       107.8146 
 670   0.0000       3.967896       107.9719 
 671   0.0000       3.975156       108.1695 
 672   0.0000       3.976648       108.2101 
 673   0.0000       3.985602       108.4537 
 674   0.0000       3.989125       108.5496 
 675   0.0000       3.992562       108.6431 
 676   0.0000       4.002935       108.9254 
 677   0.0000       4.011627       109.1619 
 678   0.0000       4.016803       109.3028 
 679   0.0000       4.021832       109.4396 
 680   0.0000       4.026388       109.5636 
 681   0.0000       4.032553       109.7313 
 682   0.0000       4.040943       109.9597 
 683   0.0000       4.047121       110.1278 
 684   0.0000       4.054875       110.3388 
 685   0.0000       4.064359       110.5968 
 686   0.0000       4.071713       110.7969 
 687   0.0000       4.085252       111.1654 
 688   0.0000       4.089337       111.2765 
 689   0.0000       4.112416       111.9045 
 690   0.0000       4.130483       112.3962 
 691   0.0000       4.146141       112.8222 
 692   0.0000       4.151044       112.9557 
 693   0.0000       4.162768       113.2747 
 694   0.0000       4.168907       113.4417 
 695   0.0000       4.212573       114.6299 
 696   0.0000       4.219470       114.8176 
 697   0.0000       4.262352       115.9845 
 698   0.0000       4.274376       116.3117 
 699   0.0000       4.295816       116.8951 
 700   0.0000       4.339074       118.0722 
 701   0.0000       4.365133       118.7813 
 702   0.0000       4.368236       118.8657 
 703   0.0000       4.384756       119.3153 
 704   0.0000       4.404038       119.8400 
 705   0.0000       4.417219       120.1986 
 706   0.0000       4.424688       120.4019 
 707   0.0000       4.439031       120.7922 
 708   0.0000       4.479173       121.8845 
 709   0.0000       4.485626       122.0601 
 710   0.0000       4.497004       122.3697 
 711   0.0000       4.502966       122.5319 
 712   0.0000       4.514946       122.8579 
 713   0.0000       4.545238       123.6822 
 714   0.0000       4.556756       123.9956 
 715   0.0000       4.575874       124.5159 
 716   0.0000       4.577506       124.5603 
 717   0.0000       4.611301       125.4799 
 718   0.0000       4.621331       125.7528 
 719   0.0000       4.633023       126.0710 
 720   0.0000       4.649748       126.5261 
 721   0.0000       4.660146       126.8090 
 722   0.0000       4.674669       127.2042 
 723   0.0000       4.687147       127.5438 
 724   0.0000       4.713889       128.2714 
 725   0.0000       4.743015       129.0640 
 726   0.0000       4.753205       129.3413 
 727   0.0000       4.798196       130.5656 
 728   0.0000       4.834152       131.5440 
 729   0.0000       4.840069       131.7050 
 730   0.0000       4.849221       131.9540 
 731   0.0000       4.866177       132.4154 
 732   0.0000       4.876319       132.6914 
 733   0.0000       4.914093       133.7193 
 734   0.0000       4.920526       133.8943 
 735   0.0000       4.931701       134.1984 
 736   0.0000       4.975442       135.3887 
 737   0.0000       4.994153       135.8978 
 738   0.0000       5.017798       136.5412 
 739   0.0000       5.045045       137.2826 
 740   0.0000       5.049545       137.4051 
 741   0.0000       5.074845       138.0936 
 742   0.0000       5.102929       138.8578 
 743   0.0000       5.111839       139.1002 
 744   0.0000       5.145380       140.0129 
 745   0.0000       5.156668       140.3201 
 746   0.0000       5.163655       140.5102 
 747   0.0000       5.190145       141.2310 
 748   0.0000       5.209652       141.7618 
 749   0.0000       5.235700       142.4706 
 750   0.0000       5.316059       144.6573 
 751   0.0000       5.332415       145.1024 
 752   0.0000       5.391921       146.7216 
 753   0.0000       5.408294       147.1672 
 754   0.0000       5.443626       148.1286 
 755   0.0000       5.524665       150.3338 
 756   0.0000       5.566792       151.4801 
 757   0.0000       5.593668       152.2115 
 758   0.0000       5.608045       152.6027 
 759   0.0000       5.679333       154.5425 
 760   0.0000       5.771570       157.0524 
 761   0.0000       5.799996       157.8259 
 762   0.0000       5.849843       159.1823 
 763   0.0000       5.966970       162.3695 
 764   0.0000       6.131086       166.8353 
 765   0.0000       6.292912       171.2388 
 766   0.0000       6.445176       175.3822 
 767   0.0000       6.637067       180.6038 
 768   0.0000       6.677274       181.6979 
 769   0.0000       6.976720       189.8462 
 770   0.0000       7.186189       195.5461 
 771   0.0000      21.726195       591.1998 
 772   0.0000      21.808516       593.4399 
 773   0.0000      21.838718       594.2617 
 774   0.0000      21.958236       597.5140 
 775   0.0000      22.164418       603.1245 
 776   0.0000      22.168705       603.2411 
 777   0.0000      22.188140       603.7700 
 778   0.0000      22.195197       603.9620 
 779   0.0000      22.250308       605.4616 
 780   0.0000      22.313312       607.1761 
 781   0.0000      22.315066       607.2238 
 782   0.0000      22.372381       608.7834 
 783   0.0000      22.425327       610.2242 
 784   0.0000      22.465042       611.3049 
 785   0.0000      22.470217       611.4457 
 786   0.0000      22.731480       618.5550 
 787   0.0000      22.794483       620.2694 
 788   0.0000      22.930478       623.9700 
 789   0.0000      32.127996       874.2472 
 790   0.0000      32.348130       880.2374 
 791   0.0000      43.953221      1196.0279 

                 SPIN DOWN ORBITALS
  NO   OCC          E(Eh)            E(eV) 
   0   1.0000    -214.708495     -5842.5152 
   1   1.0000     -24.399362      -663.9404 
   2   1.0000     -20.776432      -565.3555 
   3   1.0000     -20.771484      -565.2208 
   4   1.0000     -20.767791      -565.1203 
   5   1.0000     -18.993299      -516.8339 
   6   1.0000     -14.177858      -385.7991 
   7   1.0000     -14.148568      -385.0021 
   8   1.0000     -10.102324      -274.8982 
   9   1.0000     -10.099915      -274.8327 
  10   1.0000     -10.094426      -274.6833 
  11   1.0000     -10.080043      -274.2919 
  12   1.0000     -10.059150      -273.7234 
  13   1.0000     -10.055822      -273.6328 
  14   1.0000     -10.036935      -273.1189 
  15   1.0000     -10.036040      -273.0945 
  16   1.0000     -10.035426      -273.0778 
  17   1.0000     -10.035312      -273.0747 
  18   1.0000     -10.029619      -272.9198 
  19   1.0000     -10.029376      -272.9132 
  20   1.0000     -10.028863      -272.8992 
  21   1.0000     -10.027607      -272.8650 
  22   1.0000     -10.025478      -272.8071 
  23   1.0000     -10.023966      -272.7660 
  24   1.0000     -10.015841      -272.5449 
  25   1.0000     -10.010190      -272.3911 
  26   1.0000      -2.812737       -76.5385 
  27   1.0000      -1.816058       -49.4175 
  28   1.0000      -1.803722       -49.0818 
  29   1.0000      -1.795048       -48.8457 
  30   1.0000      -1.152828       -31.3700 
  31   1.0000      -1.024539       -27.8791 
  32   1.0000      -0.997352       -27.1393 
  33   1.0000      -0.921480       -25.0747 
  34   1.0000      -0.907044       -24.6819 
  35   1.0000      -0.846084       -23.0231 
  36   1.0000      -0.827570       -22.5193 
  37   1.0000      -0.819458       -22.2986 
  38   1.0000      -0.812547       -22.1105 
  39   1.0000      -0.800538       -21.7837 
  40   1.0000      -0.781989       -21.2790 
  41   1.0000      -0.737843       -20.0777 
  42   1.0000      -0.730360       -19.8741 
  43   1.0000      -0.717401       -19.5215 
  44   1.0000      -0.688783       -18.7427 
  45   1.0000      -0.674461       -18.3530 
  46   1.0000      -0.662799       -18.0357 
  47   1.0000      -0.650092       -17.6899 
  48   1.0000      -0.629151       -17.1201 
  49   1.0000      -0.618118       -16.8199 
  50   1.0000      -0.608546       -16.5594 
  51   1.0000      -0.593897       -16.1608 
  52   1.0000      -0.587079       -15.9752 
  53   1.0000      -0.572785       -15.5863 
  54   1.0000      -0.563181       -15.3249 
  55   1.0000      -0.539772       -14.6879 
  56   1.0000      -0.535671       -14.5764 
  57   1.0000      -0.528222       -14.3736 
  58   1.0000      -0.525173       -14.2907 
  59   1.0000      -0.517772       -14.0893 
  60   1.0000      -0.512572       -13.9478 
  61   1.0000      -0.506393       -13.7797 
  62   1.0000      -0.502392       -13.6708 
  63   1.0000      -0.486472       -13.2376 
  64   1.0000      -0.480754       -13.0820 
  65   1.0000      -0.476043       -12.9538 
  66   1.0000      -0.475049       -12.9267 
  67   1.0000      -0.473529       -12.8854 
  68   1.0000      -0.468181       -12.7399 
  69   1.0000      -0.460543       -12.5320 
  70   1.0000      -0.449236       -12.2243 
[...]
     89      -0.000398   0.000045  -0.000062   0.572669  -0.113641   0.124056
     90       0.000030  -0.000003   0.000012   0.004292   0.049382   0.024907
     91       0.000008   0.000002   0.000007   0.004451   0.054123   0.032019
     92      -0.000006   0.000002   0.000002   0.002092   0.026449   0.017189
     93      -0.000096  -0.000005  -0.000078  -0.046807  -0.547423  -0.283910
     94      -0.000141  -0.000005  -0.000101  -0.051810  -0.615812  -0.323923
     95      -0.000090  -0.000002  -0.000057  -0.025532  -0.306686  -0.162794
     96       0.000050  -0.000009   0.000113   0.240991   0.376183  -0.751140
     97      -0.000013   0.000003  -0.000019  -0.048172  -0.067369   0.140974
     98      -0.000024   0.000010  -0.000062  -0.127356  -0.192320   0.389357
     99       0.008581  -0.000325   0.003142   0.001117  -0.001196   0.000679
    100       0.024867  -0.000958   0.009224   0.002602  -0.005218   0.000971
    101       0.018163  -0.000702   0.006725   0.001782  -0.004011   0.000601
    102      -0.000138   0.000341   0.000069  -0.000095   0.000027  -0.000022
    103       0.000011  -0.000099  -0.000019  -0.000155   0.000032  -0.000009
    104       0.000044  -0.000122  -0.000021  -0.000027  -0.000008   0.000001
    105       0.000622  -0.001158  -0.000237   0.000821  -0.000326   0.000109
    106       0.000572  -0.000986  -0.000226   0.000444  -0.000251   0.000012
    107      -0.000499   0.000831   0.000167  -0.000363   0.000225  -0.000001
    108       0.001232  -0.003322  -0.000715  -0.000105  -0.000103   0.000023
    109      -0.000642   0.001737   0.000348   0.000126   0.000025  -0.000012
    110      -0.000094   0.000323   0.000063   0.000144  -0.000047  -0.000002
    111      -0.000028   0.000094   0.000017   0.000347  -0.000069   0.000051
    112      -0.000029   0.000635   0.000118   0.001269  -0.000150   0.000121
    113       0.000018   0.000361   0.000024   0.000869  -0.000118   0.000106


-----------
IR SPECTRUM
-----------

 Mode    freq (cm**-1)   T**2         TX         TY         TZ
-------------------------------------------------------------------
   6:        20.48    0.172310  ( -0.149658  -0.386981   0.012580)
   7:        33.57    0.085942  (  0.283137   0.072255  -0.023552)
   8:        51.06    0.435361  (  0.360391  -0.182709   0.521629)
   9:        65.30    0.158674  ( -0.210094  -0.334634   0.050543)
  10:        68.96    0.388897  (  0.179187   0.381235  -0.459836)
  11:        75.97    0.166248  (  0.314952   0.149520   0.211415)
  12:        92.44    0.014482  ( -0.057766  -0.004828   0.105461)
  13:       133.21    1.278615  (  1.083444  -0.316181  -0.069229)
  14:       143.71    1.141774  (  0.873973  -0.533416  -0.305637)
  15:       163.41    1.899099  (  0.172180   0.581246  -1.237581)
  16:       192.57    5.098562  (  0.629631   1.472667  -1.591659)
  17:       193.59    0.589989  ( -0.438448   0.512212  -0.367955)
  18:       216.51    0.529943  (  0.255052   0.565272   0.381259)
  19:       223.03    2.547476  ( -1.464396  -0.032505   0.634006)
  20:       271.46    2.218818  ( -0.527637   1.129015   0.815930)
  21:       303.52    1.591923  ( -0.808443   0.362182  -0.898425)
  22:       321.02   14.934425  (  3.740308   0.742036  -0.627615)
  23:       362.15    5.663716  (  1.378766   1.583133   1.120896)
  24:       367.22   10.782024  (  0.029966  -1.957095   2.636457)
  25:       379.26   10.853260  ( -2.514037  -1.749242   1.213684)
  26:       405.93    1.072921  (  0.384326  -0.902982   0.331418)
  27:       408.25    1.814841  ( -0.046386   1.269722  -0.447768)
  28:       444.90    3.266153  (  1.633750   0.154076   0.757150)
  29:       471.30   25.474422  (  1.824381   0.894377   4.620189)
  30:       477.04   14.519559  ( -3.516340   0.478837   1.387671)
  31:       536.25    0.400245  (  0.549831   0.181298  -0.255072)
  32:       565.66    0.272450  ( -0.299504   0.378314  -0.199064)
  33:       571.79    7.148085  (  0.733109  -1.643753   1.977047)
  34:       581.72    2.893089  (  1.699519  -0.037472  -0.057629)
  35:       587.96    2.267467  (  1.323994  -0.677566   0.235394)
  36:       605.93    8.099418  ( -2.265194  -1.624206   0.574689)
  37:       608.44    4.064046  (  1.903800   0.530884  -0.397183)
  38:       625.90   12.945903  (  3.424719   0.555011  -0.953503)
  39:       650.89    7.511592  (  2.689556  -0.165402  -0.500523)
  40:       668.16    6.252588  (  0.917737  -0.953772   2.121477)
  41:       684.88   17.131925  (  1.879494  -0.632199  -3.633146)
  42:       711.97    8.896828  (  0.491452  -1.888927   2.255495)
  43:       731.02   36.258488  ( -2.745041  -1.235831   5.214975)
  44:       736.23   43.977676  (  2.858936  -3.629276   4.757364)
  45:       746.26   57.397412  (  2.484461  -4.670899   5.422874)
  46:       765.73    7.477230  (  2.323876   0.657998   1.282134)
  47:       788.60   41.281815  ( -4.893694   0.867468   4.071987)
  48:       807.47    1.847914  ( -0.943140   0.063113   0.976943)
  49:       828.95    1.763112  ( -0.569428   0.602421  -1.037281)
  50:       832.36    0.368632  ( -0.523314  -0.263878  -0.158565)
  51:       855.47   64.999877  (  4.872349   5.555053   3.225133)
  52:       880.72    1.543805  (  1.201454   0.131927  -0.287939)
  53:       883.02    0.124017  (  0.185689  -0.001012  -0.299225)
  54:       893.75    3.302851  (  0.321715  -0.152893  -1.782126)
  55:       896.47   10.372220  (  0.867673   1.021496  -2.928466)
  56:       898.36   10.214202  (  1.935093  -2.151086  -1.357367)
  57:       911.70    1.276951  ( -0.463951   0.404858  -0.947518)
  58:       943.97    0.194336  ( -0.368461  -0.238554  -0.040800)
  59:       951.56    0.073407  (  0.209405   0.112401   0.130087)
  60:       974.67   65.513921  (  7.804272   0.890647  -1.952950)
  61:       976.48    0.070687  ( -0.225756  -0.108454   0.089216)
  62:       995.34   13.849997  (  2.699391   2.360998   0.994472)
  63:      1017.39    5.934006  (  1.912329   1.379454   0.611645)
  64:      1031.74    6.580553  ( -0.928442   1.387096   1.947951)
  65:      1049.58  124.855260  (-10.185205   0.767368   4.530785)
  66:      1072.26    8.978188  (  1.471077  -2.353045   1.130177)
  67:      1079.88    9.046794  ( -1.208173   1.995974   1.898209)
  68:      1083.53   22.294496  (  2.989240   3.449798   1.207408)
  69:      1121.07    1.930636  (  0.629214  -1.182576  -0.369105)
  70:      1135.18   94.953858  ( -7.259354  -5.919698  -2.685669)
  71:      1142.85   30.493523  ( -3.506406  -3.530117  -2.395186)
  72:      1155.41    0.860641  ( -0.666311   0.180008   0.619894)
  73:      1158.63    0.403743  (  0.460729   0.434829   0.048943)
  74:      1165.89   40.568312  (  4.899298   3.853310   1.310418)
  75:      1184.12   37.039741  (  0.938987  -4.065517  -4.430532)
  76:      1198.51   48.557506  (  6.129544   3.173133   0.957826)
  77:      1248.61   23.359066  ( -4.636992  -0.770663   1.124031)
  78:      1266.97  111.887028  (  8.924542  -2.170487  -5.246768)
  79:      1280.38   50.959986  (  3.571940  -3.744359  -4.917419)
  80:      1298.32    0.074342  ( -0.141280   0.136232  -0.189270)
  81:      1313.99   31.661902  ( -1.983020   3.298519   4.104791)
  82:      1339.24    6.150328  ( -1.949774  -0.631691   1.396308)
  83:      1343.06    5.122240  (  2.012227  -1.004968  -0.251440)
  84:      1348.89    6.241347  (  1.921771   0.259484  -1.575059)
  85:      1381.72   10.561026  ( -1.178786  -0.284327   3.015070)
  86:      1384.45  100.837424  ( -3.487312   7.189848   6.081296)
  87:      1428.45   72.258469  ( -8.113072  -2.535515   0.087707)
  88:      1447.67   10.983609  ( -0.947692  -3.174877   0.075142)
  89:      1453.01   19.124087  ( -1.163944  -2.422674  -3.449634)
  90:      1461.77   17.597130  ( -1.739624   2.625351   2.770987)
  91:      1471.77   52.804657  ( -5.349161  -4.148302  -2.642485)
  92:      1487.70  191.184528  (  9.953486  -4.906234  -8.248728)
  93:      1566.81    8.308451  ( -1.961196  -1.679889  -1.280677)
  94:      1574.00  366.840845  ( 17.200085  -3.084791  -7.841046)
  95:      1578.80   21.662883  (  2.681410  -2.437442  -2.920925)
  96:      1596.78   21.809604  ( -3.490274  -1.520950   2.704497)
  97:      1608.63   39.508155  ( -5.695191   1.916490   1.843914)
  98:      2890.71    4.598485  ( -0.273264  -2.037609   0.609885)
  99:      3031.73    2.834440  (  0.738733  -1.442047   0.457398)
 100:      3090.17    2.063804  ( -1.373314  -0.242853   0.344725)
 101:      3104.92    0.075779  (  0.072646  -0.119150  -0.237288)
 102:      3113.81    2.164166  (  1.123329   0.923320   0.223108)
 103:      3119.05    0.595949  (  0.420541  -0.603008   0.235531)
 104:      3120.62    1.077398  (  0.921353  -0.161714  -0.449840)
 105:      3126.16    2.967966  ( -1.557261  -0.227928  -0.700681)
 106:      3129.04    0.531064  ( -0.698283  -0.022037   0.207314)
 107:      3132.67    0.889960  (  0.626287   0.695501   0.118332)
 108:      3136.33    0.552432  (  0.159739  -0.531372  -0.494529)
 109:      3139.25    0.292224  (  0.303201   0.416040   0.164935)
 110:      3143.75    0.201454  ( -0.366402  -0.230646  -0.118347)
 111:      3156.83    0.049419  ( -0.132156  -0.116112   0.135913)
 112:      3173.49    0.302252  (  0.016056  -0.410235  -0.365652)
 113:      3189.87    1.336542  ( -1.105135  -0.204515   0.270911)

The first frequency considered to be a vibration is 6
The total number of vibrations considered is 108


--------------------------
THERMOCHEMISTRY AT 298.15K
--------------------------

Temperature         ... 298.15 K
Pressure            ... 1.00 atm
Total Mass          ... 328.34 AMU

Throughout the following assumptions are being made:
  (1) The electronic state is orbitally nondegenerate
      but the spin degeneracy is treated
  (2) There are no thermally accessible electronically excited states
  (3) Hindered rotations indicated by low frequency modes are not
      treated as such but are treated as vibrations and this may
      cause some error
  (4) All equations used are the standard statistical mechanics
      equations for an ideal gas
  (5) All vibrations are strictly harmonic

freq.      20.48  E(vib)   ...       0.56 
freq.      33.57  E(vib)   ...       0.55 
freq.      51.06  E(vib)   ...       0.52 
freq.      65.30  E(vib)   ...       0.50 
freq.      68.96  E(vib)   ...       0.50 
freq.      75.97  E(vib)   ...       0.49 
freq.      92.44  E(vib)   ...       0.47 
freq.     133.21  E(vib)   ...       0.42 
freq.     143.71  E(vib)   ...       0.41 
freq.     163.41  E(vib)   ...       0.39 
freq.     192.57  E(vib)   ...       0.36 
freq.     193.59  E(vib)   ...       0.36 
freq.     216.51  E(vib)   ...       0.34 
freq.     223.03  E(vib)   ...       0.33 
freq.     271.46  E(vib)   ...       0.29 
freq.     303.52  E(vib)   ...       0.26 
freq.     321.02  E(vib)   ...       0.25 
freq.     362.15  E(vib)   ...       0.22 
freq.     367.22  E(vib)   ...       0.22 
freq.     379.26  E(vib)   ...       0.21 
freq.     405.93  E(vib)   ...       0.19 
freq.     408.25  E(vib)   ...       0.19 
freq.     444.90  E(vib)   ...       0.17 
freq.     471.30  E(vib)   ...       0.15 
freq.     477.04  E(vib)   ...       0.15 
freq.     536.25  E(vib)   ...       0.12 
freq.     565.66  E(vib)   ...       0.11 
freq.     571.79  E(vib)   ...       0.11 
freq.     581.72  E(vib)   ...       0.11 
freq.     587.96  E(vib)   ...       0.10 
freq.     605.93  E(vib)   ...       0.10 
freq.     608.44  E(vib)   ...       0.10 
freq.     625.90  E(vib)   ...       0.09 
freq.     650.89  E(vib)   ...       0.08 
freq.     668.16  E(vib)   ...       0.08 
freq.     684.88  E(vib)   ...       0.07 
freq.     711.97  E(vib)   ...       0.07 
freq.     731.02  E(vib)   ...       0.06 
freq.     736.23  E(vib)   ...       0.06 
freq.     746.26  E(vib)   ...       0.06 
freq.     765.73  E(vib)   ...       0.06 
freq.     788.60  E(vib)   ...       0.05 
freq.     807.47  E(vib)   ...       0.05 
freq.     828.95  E(vib)   ...       0.04 
freq.     832.36  E(vib)   ...       0.04 
freq.     855.47  E(vib)   ...       0.04 
freq.     880.72  E(vib)   ...       0.04 
freq.     883.02  E(vib)   ...       0.04 
freq.     893.75  E(vib)   ...       0.03 
freq.     896.47  E(vib)   ...       0.03 
freq.     898.36  E(vib)   ...       0.03 
freq.     911.70  E(vib)   ...       0.03 
freq.     943.97  E(vib)   ...       0.03 
freq.     951.56  E(vib)   ...       0.03 
freq.     974.67  E(vib)   ...       0.03 
freq.     976.48  E(vib)   ...       0.03 
freq.     995.34  E(vib)   ...       0.02 
freq.    1017.39  E(vib)   ...       0.02 
freq.    1031.74  E(vib)   ...       0.02 
freq.    1049.58  E(vib)   ...       0.02 
freq.    1072.26  E(vib)   ...       0.02 
freq.    1079.88  E(vib)   ...       0.02 
freq.    1083.53  E(vib)   ...       0.02 
freq.    1121.07  E(vib)   ...       0.01 
freq.    1135.18  E(vib)   ...       0.01 
freq.    1142.85  E(vib)   ...       0.01 
freq.    1155.41  E(vib)   ...       0.01 
freq.    1158.63  E(vib)   ...       0.01 
freq.    1165.89  E(vib)   ...       0.01 
freq.    1184.12  E(vib)   ...       0.01 
freq.    1198.51  E(vib)   ...       0.01 
freq.    1248.61  E(vib)   ...       0.01 
freq.    1266.97  E(vib)   ...       0.01 
freq.    1280.38  E(vib)   ...       0.01 
freq.    1298.32  E(vib)   ...       0.01 
freq.    1313.99  E(vib)   ...       0.01 
freq.    1339.24  E(vib)   ...       0.01 
freq.    1343.06  E(vib)   ...       0.01 
freq.    1348.89  E(vib)   ...       0.01 
freq.    1381.72  E(vib)   ...       0.01 
freq.    1384.45  E(vib)   ...       0.00 
freq.    1428.45  E(vib)   ...       0.00 
freq.    1447.67  E(vib)   ...       0.00 
freq.    1453.01  E(vib)   ...       0.00 
freq.    1461.77  E(vib)   ...       0.00 
freq.    1471.77  E(vib)   ...       0.00 
freq.    1487.70  E(vib)   ...       0.00 
freq.    1566.81  E(vib)   ...       0.00 
freq.    1574.00  E(vib)   ...       0.00 
freq.    1578.80  E(vib)   ...       0.00 
freq.    1596.78  E(vib)   ...       0.00 
freq.    1608.63  E(vib)   ...       0.00 
freq.    2890.71  E(vib)   ...       0.00 
freq.    3031.73  E(vib)   ...       0.00 
freq.    3090.17  E(vib)   ...       0.00 
freq.    3104.92  E(vib)   ...       0.00 
freq.    3113.81  E(vib)   ...       0.00 
freq.    3119.05  E(vib)   ...       0.00 
freq.    3120.62  E(vib)   ...       0.00 
freq.    3126.16  E(vib)   ...       0.00 
freq.    3129.04  E(vib)   ...       0.00 
freq.    3132.67  E(vib)   ...       0.00 
freq.    3136.33  E(vib)   ...       0.00 
freq.    3139.25  E(vib)   ...       0.00 
freq.    3143.75  E(vib)   ...       0.00 
freq.    3156.83  E(vib)   ...       0.00 
freq.    3173.49  E(vib)   ...       0.00 
freq.    3189.87  E(vib)   ...       0.00 

------------
INNER ENERGY
------------

The inner energy is: U= E(el) + E(ZPE) + E(vib) + E(rot) + E(trans)
    E(el)   - is the total energy from the electronic structure calculation
              = E(kin-el) + E(nuc-el) + E(el-el) + E(nuc-nuc)
    E(ZPE)  - the the zero temperature vibrational energy from the frequency calculation
    E(vib)  - the the finite temperature correction to E(ZPE) due to population
              of excited vibrational states
    E(rot)  - is the rotational thermal energy
    E(trans)- is the translational thermal energy

Summary of contributions to the inner energy U:
Electronic energy                ...  -1925.14529287 Eh
Zero point energy                ...      0.28672788 Eh     179.92 kcal/mol
Thermal vibrational correction   ...      0.01715080 Eh      10.76 kcal/mol
Thermal rotational correction    ...      0.00141627 Eh       0.89 kcal/mol
Thermal translational correction ...      0.00141627 Eh       0.89 kcal/mol
-----------------------------------------------------------------------
Total thermal energy                  -1924.83858165 Eh


Summary of corrections to the electronic energy:
(perhaps to be used in another calculation)
Total thermal correction                  0.01998334 Eh      12.54 kcal/mol
Non-thermal (ZPE) correction              0.28672788 Eh     179.92 kcal/mol
-----------------------------------------------------------------------
Total correction                          0.30671122 Eh     192.46 kcal/mol


--------
ENTHALPY
--------

The enthalpy is H = U + kB*T
                kB is Boltzmann's constant
Total free energy                 ...  -1924.83858165 Eh 
Thermal Enthalpy correction       ...      0.00094421 Eh       0.59 kcal/mol
-----------------------------------------------------------------------
Total Enthalpy                    ...  -1924.83763744 Eh


Note: Only C1 symmetry has been detected, increase convergence thresholds 
      if your molecule has a higher symmetry. Symmetry factor of 1.0 is   
      used for the rotational entropy correction. 
 

Note: Rotational entropy computed according to Herzberg 
Infrared and Raman Spectra, Chapter V,1, Van Nostrand Reinhold, 1945 
Point Group:  C1, Symmetry Number:   1  
Rotational constants in cm-1:     0.013217     0.006916     0.004890 

Vibrational entropy computed according to the QRRHO of S. Grimme
Chem.Eur.J. 2012 18 9955


-------
ENTROPY
-------

The entropy contributions are T*S = T*(S(el)+S(vib)+S(rot)+S(trans))
     S(el)   - electronic entropy
     S(vib)  - vibrational entropy
     S(rot)  - rotational entropy
     S(trans)- translational entropy
The entropies will be listed as mutliplied by the temperature to get
units of energy

Electronic entropy                ...      0.00130891 Eh      0.82 kcal/mol
Vibrational entropy               ...      0.03003101 Eh     18.84 kcal/mol
Rotational entropy                ...      0.01641318 Eh     10.30 kcal/mol
Translational entropy             ...      0.02055501 Eh     12.90 kcal/mol
-----------------------------------------------------------------------
Final entropy term                ...      0.06830811 Eh     42.86 kcal/mol

In case the symmetry of your molecule has not been determined correctly
or in case you have a reason to use a different symmetry number we print 
out the resulting rotational entropy values for sn=1,12 :
 --------------------------------------------------------
|  sn= 1 | S(rot)=       0.01641318 Eh     10.30 kcal/mol|
|  sn= 2 | S(rot)=       0.01575872 Eh      9.89 kcal/mol|
|  sn= 3 | S(rot)=       0.01537589 Eh      9.65 kcal/mol|
|  sn= 4 | S(rot)=       0.01510426 Eh      9.48 kcal/mol|
|  sn= 5 | S(rot)=       0.01489358 Eh      9.35 kcal/mol|
|  sn= 6 | S(rot)=       0.01472143 Eh      9.24 kcal/mol|
|  sn= 7 | S(rot)=       0.01457589 Eh      9.15 kcal/mol|
|  sn= 8 | S(rot)=       0.01444981 Eh      9.07 kcal/mol|
|  sn= 9 | S(rot)=       0.01433860 Eh      9.00 kcal/mol|
|  sn=10 | S(rot)=       0.01423912 Eh      8.94 kcal/mol|
|  sn=11 | S(rot)=       0.01414913 Eh      8.88 kcal/mol|
|  sn=12 | S(rot)=       0.01406698 Eh      8.83 kcal/mol|
 --------------------------------------------------------


-------------------
GIBBS FREE ENERGY
-------------------

The Gibbs free energy is G = H - T*S

Total enthalpy                    ...  -1924.83763744 Eh 
Total entropy correction          ...     -0.06830811 Eh    -42.86 kcal/mol
-----------------------------------------------------------------------
Final Gibbs free energy         ...  -1924.90594555 Eh

For completeness - the Gibbs free energy minus the electronic energy
G-E(el)                           ...      0.23934732 Eh    150.19 kcal/mol


Timings for individual modules:

Sum of individual times         ...    49323.048 sec (= 822.051 min)
GTO integral calculation        ...        1.445 sec (=   0.024 min)   0.0 %
SCF iterations                  ...       83.848 sec (=   1.397 min)   0.2 %
Analytical frequency calculation...    49237.755 sec (= 820.629 min)  99.8 %
                             ****ORCA TERMINATED NORMALLY****
TOTAL RUN TIME: 0 days 13 hours 42 minutes 4 seconds 381 msec
