
                                 *****************
                                 * O   R   C   A *
                                 *****************

           --- An Ab Initio, DFT and Semiempirical electronic structure package ---

                  #######################################################
                  #                        -***-                        #
                  #          Department of theory and spectroscopy      #
                  #               Directorship: Frank Neese             #
                  #        Max Planck Institute fuer Kohlenforschung    #
                  #                Kaiser Wilhelm Platz 1               #
                  #                 D-45470 Muelheim/Ruhr               #
                  #                      Germany                        #
                  #                                                     #
                  #                  All rights reserved                #
                  #                        -***-                        #
                  #######################################################


                         Program Version 4.2.1 -  RELEASE  -


 With contributions from (in alphabetic order):
   Daniel Aravena         : Magnetic Suceptibility
   Michael Atanasov       : Ab Initio Ligand Field Theory (pilot matlab implementation)
   Alexander A. Auer      : GIAO ZORA, VPT2
   Ute Becker             : Parallelization
   Giovanni Bistoni       : ED, misc. LED, open-shell LED, HFLD
   Martin Brehm           : Molecular dynamics
   Dmytro Bykov           : SCF Hessian
   Vijay G. Chilkuri      : MRCI spin determinant printing, contributions to CSF-ICE
   Dipayan Datta          : RHF DLPNO-CCSD density
   Achintya Kumar Dutta   : EOM-CC, STEOM-CC
   Dmitry Ganyushin       : Spin-Orbit,Spin-Spin,Magnetic field MRCI
   Miquel Garcia          : C-PCM Hessian, Gaussian charge scheme
   Yang Guo               : DLPNO-NEVPT2, CIM, IAO-localization
   Andreas Hansen         : Spin unrestricted coupled pair/coupled cluster methods
   Benjamin Helmich-Paris : CASSCF linear response (MC-RPA)
   Lee Huntington         : MR-EOM, pCC
   Robert Izsak           : Overlap fitted RIJCOSX, COSX-SCS-MP3, EOM
   Christian Kollmar      : KDIIS, OOCD, Brueckner-CCSD(T), CCSD density
   Simone Kossmann        : Meta GGA functionals, TD-DFT gradient, OOMP2, MP2 Hessian
   Martin Krupicka        : AUTO-CI
   Lucas Lang             : DCDCAS
   Dagmar Lenk            : GEPOL surface, SMD
   Dimitrios Liakos       : Extrapolation schemes; Compound Job, initial MDCI parallelization
   Dimitrios Manganas     : Further ROCIS development; embedding schemes
   Dimitrios Pantazis     : SARC Basis sets
   Taras Petrenko         : DFT Hessian,TD-DFT gradient, ASA, ECA, R-Raman, ABS, FL, XAS/XES, NRVS
   Peter Pinski           : DLPNO-MP2, DLPNO-MP2 Gradient
   Christoph Reimann      : Effective Core Potentials
   Marius Retegan         : Local ZFS, SOC
   Christoph Riplinger    : Optimizer, TS searches, QM/MM, DLPNO-CCSD(T), (RO)-DLPNO pert. Triples
   Tobias Risthaus        : Range-separated hybrids, TD-DFT gradient, RPA, STAB
   Michael Roemelt        : Original ROCIS implementation
   Masaaki Saitow         : Open-shell DLPNO-CCSD energy and density
   Barbara Sandhoefer     : DKH picture change effects
   Avijit Sen             : IP-ROCIS
   Kantharuban Sivalingam : CASSCF convergence, NEVPT2, FIC-MRCI
   Bernardo de Souza      : ESD, SOC TD-DFT
   Georgi Stoychev        : AutoAux, RI-MP2 NMR
   Willem Van den Heuvel  : Paramagnetic NMR
   Boris Wezisla          : Elementary symmetry handling
   Frank Wennmohs         : Technical directorship


 We gratefully acknowledge several colleagues who have allowed us to
 interface, adapt or use parts of their codes:
   Stefan Grimme, W. Hujo, H. Kruse,             : VdW corrections, initial TS optimization,
                  C. Bannwarth                     DFT functionals, gCP, sTDA/sTD-DF
   Ed Valeev, F. Pavosevic, A. Kumar             : LibInt (2-el integral package), F12 methods
   Garnet Chan, S. Sharma, J. Yang, R. Olivares  : DMRG
   Ulf Ekstrom                                   : XCFun DFT Library
   Mihaly Kallay                                 : mrcc  (arbitrary order and MRCC methods)
   Andreas Klamt, Michael Diedenhofen            : otool_cosmo (COSMO solvation model)
   Jiri Pittner, Ondrej Demel                    : Mk-CCSD
   Frank Weinhold                                : gennbo (NPA and NBO analysis)
   Christopher J. Cramer and Donald G. Truhlar   : smd solvation model
   Lars Goerigk                                  : TD-DFT with DH, B97 family of functionals
   V. Asgeirsson, H. Jonsson                     : NEB implementation
   FAccTs GmbH                                   : IRC, NEB, NEB-TS, Multilevel, MM, QM/MM, CI optimization
   S Lehtola, MJT Oliveira, MAL Marques          : LibXC Library


 Your calculation uses the libint2 library for the computation of 2-el integrals
 For citations please refer to: http://libint.valeyev.net

 Your ORCA version has been built with support for libXC version: 4.2.3
 For citations please refer to: https://tddft.org/programs/libxc/

 This ORCA versions uses:
   CBLAS   interface :  Fast vector & matrix operations
   LAPACKE interface :  Fast linear algebra routines
   SCALAPACK package :  Parallel linear algebra routines


Your calculation utilizes the atom-pairwise dispersion correction
with the Becke-Johnson damping scheme (D3BJ)
Cite in your paper:
S.Grimme, S.Ehrlich, L.Goerigk, J Comput Chem, (2011), 32, 1456–1465 
S.Grimme, J.Antony, S.Ehrlich and H.Krieg, J.Chem.Phys., 132, (2010), 154104 
   

Your calculation utilizes the SMD solvation module
Please cite in your paper:
A.V. Marenich, C.J. Cramer, D.G. Truhlar J. Phys. Chem. B, 113, (2009), 6378 

----- Orbital basis set information -----
Your calculation utilizes the basis: def2-TZVP
   F. Weigend and R. Ahlrichs, Phys. Chem. Chem. Phys. 7, 3297 (2005).

----- AuxJ basis set information -----
Your calculation utilizes the auxiliary basis: def2/J
   F. Weigend, Phys. Chem. Chem. Phys. 8, 1057 (2006).

================================================================================
                                        WARNINGS
                       Please study these warnings very carefully!
================================================================================


WARNING: your system is open-shell and RHF/RKS was chosen
  ===> : WILL SWITCH to UHF/UKS


INFO   : the flag for use of LIBINT has been found!

================================================================================
                                       INPUT FILE
================================================================================
NAME = IM2_2_Solv.inp
|  1> #
|  2> # ORCA calc attempt 1 :-)
|  3> #
|  4> ! BP86 D3BJ RIJCOSX def2-TZVP def2/J Grid6 FinalGrid6 MORead CPCM TightSCF 
|  5> %moinp "IM2_2_Tight2.ges"
|  6> %cpcm
|  7> smd true
|  8> SMDsolvent "Toluene"
|  9> end
| 10> * xyz 1 4
| 11>   Cr  -0.41036249812630     -1.14992914507252     -2.34004385040183
| 12>   O   -2.12216162168026     -1.14519690995948     -1.17754406423218
| 13>   N   0.33988703026649     -0.73204259358667     -0.59739838549546
| 14>   N   1.39371869203748     -0.67020857183810     -2.97302303339981
| 15>   C   -3.34390554453468     -1.70536034968726     -1.64620120851950
| 16>   C   -3.66400554684112     -3.02700635729837     -1.35050474678491
| 17>   C   -4.13177506422986     -0.89896189557377     -2.45829289610933
| 18>   C   -4.83334950636377     -3.55621520137024     -1.89917362636501
| 19>   H   -3.01807769339847     -3.62296675460979     -0.70697328280137
| 20>   C   -5.29451159090046     -1.44923909552683     -3.00751894028585
| 21>   H   -3.84761889171642      0.13740043123590     -2.64312877303583
| 22>   C   -5.64370340100394     -2.77196066384732     -2.72742212316734
| 23>   H   -5.10776750890581     -4.58837594360039     -1.68193949199870
| 24>   H   -6.55311872442182     -3.19503628712647     -3.15344355397352
| 25>   H   -5.92943666246462     -0.83590943420375     -3.64645289529595
| 26>   C   -1.85503756079315     -1.07888671475903      0.21405677193792
| 27>   C   -0.50272252959506     -0.83744104304993      0.51440040863371
| 28>   C   -0.13138472637682     -0.72410375422834      1.86075582858572
| 29>   C   -2.83203083170993     -1.18824960591296      1.18758381812022
| 30>   C   -2.44073828022568     -1.06945389013828      2.52629724884316
| 31>   H   -3.87214703631805     -1.35995658791455      0.91515917601268
| 32>   C   -1.10128666175692     -0.84248526894378      2.85614798512020
| 33>   H   0.91020102767248     -0.55146470921543      2.12989130009331
| 34>   H   -3.19164540741716     -1.15440097025637      3.31072226834300
| 35>   H   -0.80646121400757     -0.75758821770234      3.90152086268094
| 36>   C   1.63102075099352     -0.38833547679691     -0.62616077272784
| 37>   C   2.23051467379856     -0.35329116060220     -1.88651613719271
| 38>   C   2.15204046404166     -0.58073292825340     -4.08993781489894
| 39>   C   3.47340976643520     -0.20164616424406     -3.76100167551290
| 40>   H   1.73818803434386     -0.78866235613231     -5.07397858417130
| 41>   C   3.52705777747528     -0.05889302166001     -2.37314479051929
| 42>   H   4.38611708320086      0.22725930942193     -1.77344455250381
| 43>   H   4.28392115578175     -0.05291671626512     -4.46725053119347
| 44>   H   2.17253196304111     -0.14110385777583      0.28963662667176
| 45>   C   -0.35267540107599     -3.12327768522243     -2.62375947635333
| 46>   H   0.38915838183004     -3.31194081919587     -3.41592372968261
| 47>   H   -1.37423470714951     -3.29038184903767     -3.02789668280952
| 48>   C   -0.08762045225426     -3.95538329734195     -1.37850907096418
| 49>   C   -0.31157890775637     -5.45596694637017     -1.62213231958667
| 50>   H   -0.73421018554087     -3.62441881502411     -0.54850355977938
| 51>   H   0.94746296994232     -3.78565713679879     -1.04447413247005
| 52>   H   -1.34855803888203     -5.65504427716665     -1.92960024882350
| 53>   H   -0.10792794869059     -6.03420947880856     -0.71020976703853
| 54>   H   0.34966437327728     -5.82900778853928     -2.41639757694764
| 55> *
| 56> 
| 57>                          ****END OF INPUT****
================================================================================

                       ****************************
                       * Single Point Calculation *
                       ****************************

---------------------------------
CARTESIAN COORDINATES (ANGSTROEM)
---------------------------------
  Cr    -0.410362   -1.149929   -2.340044
  O     -2.122162   -1.145197   -1.177544
  N      0.339887   -0.732043   -0.597398
  N      1.393719   -0.670209   -2.973023
  C     -3.343906   -1.705360   -1.646201
  C     -3.664006   -3.027006   -1.350505
  C     -4.131775   -0.898962   -2.458293
  C     -4.833350   -3.556215   -1.899174
  H     -3.018078   -3.622967   -0.706973
  C     -5.294512   -1.449239   -3.007519
  H     -3.847619    0.137400   -2.643129
  C     -5.643703   -2.771961   -2.727422
  H     -5.107768   -4.588376   -1.681939
  H     -6.553119   -3.195036   -3.153444
  H     -5.929437   -0.835909   -3.646453
  C     -1.855038   -1.078887    0.214057
  C     -0.502723   -0.837441    0.514400
  C     -0.131385   -0.724104    1.860756
  C     -2.832031   -1.188250    1.187584
  C     -2.440738   -1.069454    2.526297
  H     -3.872147   -1.359957    0.915159
  C     -1.101287   -0.842485    2.856148
  H      0.910201   -0.551465    2.129891
  H     -3.191645   -1.154401    3.310722
  H     -0.806461   -0.757588    3.901521
  C      1.631021   -0.388335   -0.626161
  C      2.230515   -0.353291   -1.886516
  C      2.152040   -0.580733   -4.089938
  C      3.473410   -0.201646   -3.761002
  H      1.738188   -0.788662   -5.073979
  C      3.527058   -0.058893   -2.373145
  H      4.386117    0.227259   -1.773445
  H      4.283921   -0.052917   -4.467251
  H      2.172532   -0.141104    0.289637
  C     -0.352675   -3.123278   -2.623759
  H      0.389158   -3.311941   -3.415924
  H     -1.374235   -3.290382   -3.027897
  C     -0.087620   -3.955383   -1.378509
  C     -0.311579   -5.455967   -1.622132
  H     -0.734210   -3.624419   -0.548504
  H      0.947463   -3.785657   -1.044474
  H     -1.348558   -5.655044   -1.929600
  H     -0.107928   -6.034209   -0.710210
  H      0.349664   -5.829008   -2.416398

----------------------------
CARTESIAN COORDINATES (A.U.)
----------------------------
  NO LB      ZA    FRAG     MASS         X           Y           Z
   0 Cr   24.0000    0    52.000   -0.775473   -2.173051   -4.422042
   1 O     8.0000    0    15.999   -4.010304   -2.164109   -2.225236
   2 N     7.0000    0    14.007    0.642293   -1.383360   -1.128919
   3 N     7.0000    0    14.007    2.633747   -1.266511   -5.618199
   4 C     6.0000    0    12.011   -6.319066   -3.222664   -3.110869
   5 C     6.0000    0    12.011   -6.923967   -5.720213   -2.552084
   6 C     6.0000    0    12.011   -7.807923   -1.698792   -4.645500
   7 C     6.0000    0    12.011   -9.133707   -6.720273   -3.588918
   8 H     1.0000    0     1.008   -5.703340   -6.846415   -1.335986
   9 C     6.0000    0    12.011  -10.005177   -2.738665   -5.683387
  10 H     1.0000    0     1.008   -7.270946    0.259649   -4.994790
  11 C     6.0000    0    12.011  -10.665054   -5.238247   -5.154081
  12 H     1.0000    0     1.008   -9.652282   -8.670774   -3.178405
  13 H     1.0000    0     1.008  -12.383600   -6.037744   -5.959145
  14 H     1.0000    0     1.008  -11.205011   -1.579640   -6.890797
  15 C     6.0000    0    12.011   -3.505513   -2.038800    0.404509
  16 C     6.0000    0    12.011   -0.950008   -1.582534    0.972076
  17 C     6.0000    0    12.011   -0.248281   -1.368358    3.516319
  18 C     6.0000    0    12.011   -5.351763   -2.245466    2.244208
  19 C     6.0000    0    12.011   -4.612327   -2.020975    4.774010
  20 H     1.0000    0     1.008   -7.317297   -2.569946    1.729400
  21 C     6.0000    0    12.011   -2.081130   -1.592066    5.397337
  22 H     1.0000    0     1.008    1.720031   -1.042117    4.024911
  23 H     1.0000    0     1.008   -6.031336   -2.181502    6.256358
  24 H     1.0000    0     1.008   -1.523991   -1.431634    7.372806
  25 C     6.0000    0    12.011    3.082183   -0.733848   -1.183272
  26 C     6.0000    0    12.011    4.215062   -0.667624   -3.564999
  27 C     6.0000    0    12.011    4.066767   -1.097426   -7.728862
  28 C     6.0000    0    12.011    6.563793   -0.381056   -7.107263
  29 H     1.0000    0     1.008    3.284699   -1.490356   -9.588430
  30 C     6.0000    0    12.011    6.665173   -0.111292   -4.484594
  31 H     1.0000    0     1.008    8.288560    0.429458   -3.351325
  32 H     1.0000    0     1.008    8.095438   -0.099998   -8.441880
  33 H     1.0000    0     1.008    4.105490   -0.266648    0.547334
  34 C     6.0000    0    12.011   -0.666460   -5.902139   -4.958187
  35 H     1.0000    0     1.008    0.735403   -6.258661   -6.455160
  36 H     1.0000    0     1.008   -2.596927   -6.217921   -5.721895
  37 C     6.0000    0    12.011   -0.165579   -7.474591   -2.605005
  38 C     6.0000    0    12.011   -0.588799  -10.310283   -3.065386
  39 H     1.0000    0     1.008   -1.387456   -6.849159   -1.036522
  40 H     1.0000    0     1.008    1.790446   -7.153855   -1.973770
  41 H     1.0000    0     1.008   -2.548405  -10.686485   -3.646416
  42 H     1.0000    0     1.008   -0.203954  -11.403003   -1.342102
  43 H     1.0000    0     1.008    0.660770  -11.015228   -4.566330

--------------------------------
INTERNAL COORDINATES (ANGSTROEM)
--------------------------------
 Cr     0   0   0     0.000000000000     0.00000000     0.00000000
 O      1   0   0     2.069223135936     0.00000000     0.00000000
 N      1   2   0     1.942760083264    79.34140168     0.00000000
 N      1   2   3     1.971168033222   159.55247908   327.96810733
 C      2   1   3     1.423404654738   121.61365690   194.99693927
 C      5   2   1     1.391635217431   120.08044908    93.48190602
 C      5   2   1     1.389427852000   116.79168406   277.11937362
 C      6   5   2     1.395874219167   117.98408014   183.80350723
 H      6   5   2     1.089276976785   120.57951187     3.99346700
 C      7   5   2     1.398717439244   118.20002396   175.83859279
 H      7   5   2     1.090392545924   120.19389598   354.99184537
 C     10   7   5     1.396417378331   120.11687663     0.50267992
 H      8   6   5     1.089886098202   119.44732827   180.09481118
 H     12  10   7     1.089735505977   119.86885626   179.69286656
 H     10   7   5     1.089742959979   119.54732458   179.90883046
 C      2   1   3     1.418557433847   113.29441769   350.24298609
 C      3   1   2     1.398998306699   117.64897661     9.44265577
 C     17   3   1     1.401217335737   126.71870300   172.61923329
 C     16   2   1     1.383557372510   123.61450257   186.23430262
 C     19  16   2     1.399777101017   117.95910621   181.70070950
 H     19  16   2     1.088825143163   120.72847769     1.60971899
 C     18  17   3     1.394822387464   119.64009554   179.38114181
 H     18  17   3     1.089559096573   120.23185469   358.95037864
 H     20  19  16     1.089219964610   119.30259494   180.14659563
 H     22  18  17     1.089465009576   119.33820090   179.75249586
 C      3   1   2     1.336408673217   114.14892280   188.70541761
 C     26   3   1     1.396107700829   116.15120702     1.31907838
 C      4   1   2     1.352980572596   142.57579346   210.36561573
 C     28   4   1     1.413478896818   110.46189675   183.14691656
 H     28   4   1     1.087586647645   121.39975467     2.98182013
 C     29  28   4     1.396210335884   107.13731339     0.30875975
 H     31  29  28     1.086050838043   127.31616539   180.25198150
 H     29  28   4     1.085281809995   125.69493452   180.33001134
 H     26   3   1     1.092264960055   121.27472240   180.70496983
 C      1   2   3     1.994474070648    96.09097130   108.47247460
 H     35   1   2     1.101560413157   106.93159820   168.04313610
 H     35   1   2     1.111230893663   100.01637733    54.09087847
 C     35   1   2     1.520954452881   115.45962803   293.65094681
 C     38  35   1     1.536639503850   112.27513669   169.52435534
 H     38  35   1     1.102961885264   110.47423769    47.51762412
 H     38  35   1     1.100810610693   109.14439565   291.27544147
 H     39  38  35     1.099769989378   111.00925531   299.85849009
 H     39  38  35     1.098836148520   110.81172322   179.66207496
 H     39  38  35     1.098753587338   111.00455252    59.60511180

---------------------------
INTERNAL COORDINATES (A.U.)
---------------------------
 Cr     0   0   0     0.000000000000     0.00000000     0.00000000
 O      1   0   0     3.910265036893     0.00000000     0.00000000
 N      1   2   0     3.671284501284    79.34140168     0.00000000
 N      1   2   3     3.724967746730   159.55247908   327.96810733
 C      2   1   3     2.689844975204   121.61365690   194.99693927
 C      5   2   1     2.629809439264   120.08044908    93.48190602
 C      5   2   1     2.625638123123   116.79168406   277.11937362
 C      6   5   2     2.637819991627   117.98408014   183.80350723
 H      6   5   2     2.058435170109   120.57951187     3.99346700
 C      7   5   2     2.643192898910   118.20002396   175.83859279
 H      7   5   2     2.060543290266   120.19389598   354.99184537
 C     10   7   5     2.638846413693   120.11687663     0.50267992
 H      8   6   5     2.059586242770   119.44732827   180.09481118
 H     12  10   7     2.059301664706   119.86885626   179.69286656
 H     10   7   5     2.059315750729   119.54732458   179.90883046
 C      2   1   3     2.680685055208   113.29441769   350.24298609
 C      3   1   2     2.643723661481   117.64897661     9.44265577
 C     17   3   1     2.647917018646   126.71870300   172.61923329
 C     16   2   1     2.614544524611   123.61450257   186.23430262
 C     19  16   2     2.645195369456   117.95910621   181.70070950
 H     19  16   2     2.057581328306   120.72847769     1.60971899
 C     18  17   3     2.635832317769   119.64009554   179.38114181
 H     18  17   3     2.058968299246   120.23185469   358.95037864
 H     20  19  16     2.058327432712   119.30259494   180.14659563
 H     22  18  17     2.058790500588   119.33820090   179.75249586
 C      3   1   2     2.525446395377   114.14892280   188.70541761
 C     26   3   1     2.638261208025   116.15120702     1.31907838
 C      4   1   2     2.556762746722   142.57579346   210.36561573
 C     28   4   1     2.671088011063   110.46189675   183.14691656
 H     28   4   1     2.055240910958   121.39975467     2.98182013
 C     29  28   4     2.638455160172   107.13731339     0.30875975
 H     31  29  28     2.052338651416   127.31616539   180.25198150
 H     29  28   4     2.050885399018   125.69493452   180.33001134
 H     26   3   1     2.064081640183   121.27472240   180.70496983
 C      1   2   3     3.769009774732    96.09097130   108.47247460
 H     35   1   2     2.081647500835   106.93159820   168.04313610
 H     35   1   2     2.099922060576   100.01637733    54.09087847
 C     35   1   2     2.874187378112   115.45962803   293.65094681
 C     38  35   1     2.903827828840   112.27513669   169.52435534
 H     38  35   1     2.084295899302   110.47423769    47.51762412
 H     38  35   1     2.080230579524   109.14439565   291.27544147
 H     39  38  35     2.078264090230   111.00925531   299.85849009
 H     39  38  35     2.076499386756   110.81172322   179.66207496
 H     39  38  35     2.076343368733   111.00455252    59.60511180

---------------------
BASIS SET INFORMATION
---------------------
There are 5 groups of distinct atoms

 Group   1 Type Cr  : 17s11p7d1f contracted to 6s4p4d1f pattern {842111/6311/4111/1}
 Group   2 Type O   : 11s6p2d1f contracted to 5s3p2d1f pattern {62111/411/11/1}
 Group   3 Type N   : 11s6p2d1f contracted to 5s3p2d1f pattern {62111/411/11/1}
 Group   4 Type C   : 11s6p2d1f contracted to 5s3p2d1f pattern {62111/411/11/1}
 Group   5 Type H   : 5s1p contracted to 3s1p pattern {311/1}

Atom   0Cr   basis set group =>   1
Atom   1O    basis set group =>   2
Atom   2N    basis set group =>   3
Atom   3N    basis set group =>   3
Atom   4C    basis set group =>   4
Atom   5C    basis set group =>   4
Atom   6C    basis set group =>   4
Atom   7C    basis set group =>   4
Atom   8H    basis set group =>   5
Atom   9C    basis set group =>   4
Atom  10H    basis set group =>   5
Atom  11C    basis set group =>   4
Atom  12H    basis set group =>   5
Atom  13H    basis set group =>   5
Atom  14H    basis set group =>   5
Atom  15C    basis set group =>   4
Atom  16C    basis set group =>   4
Atom  17C    basis set group =>   4
Atom  18C    basis set group =>   4
Atom  19C    basis set group =>   4
Atom  20H    basis set group =>   5
Atom  21C    basis set group =>   4
Atom  22H    basis set group =>   5
Atom  23H    basis set group =>   5
Atom  24H    basis set group =>   5
Atom  25C    basis set group =>   4
Atom  26C    basis set group =>   4
Atom  27C    basis set group =>   4
Atom  28C    basis set group =>   4
Atom  29H    basis set group =>   5
Atom  30C    basis set group =>   4
Atom  31H    basis set group =>   5
Atom  32H    basis set group =>   5
Atom  33H    basis set group =>   5
Atom  34C    basis set group =>   4
Atom  35H    basis set group =>   5
Atom  36H    basis set group =>   5
Atom  37C    basis set group =>   4
Atom  38C    basis set group =>   4
Atom  39H    basis set group =>   5
Atom  40H    basis set group =>   5
Atom  41H    basis set group =>   5
Atom  42H    basis set group =>   5
Atom  43H    basis set group =>   5
---------------------------------
AUXILIARY/J BASIS SET INFORMATION
---------------------------------
There are 5 groups of distinct atoms

 Group   1 Type Cr  : 19s5p5d3f3g contracted to 8s5p5d2f3g pattern {121111111/11111/11111/21/111}
 Group   2 Type O   : 12s5p4d2f1g contracted to 6s4p3d1f1g pattern {711111/2111/211/2/1}
 Group   3 Type N   : 12s5p4d2f1g contracted to 6s4p3d1f1g pattern {711111/2111/211/2/1}
 Group   4 Type C   : 12s5p4d2f1g contracted to 6s4p3d1f1g pattern {711111/2111/211/2/1}
 Group   5 Type H   : 5s2p1d contracted to 3s1p1d pattern {311/2/1}

Atom   0Cr   basis set group =>   1
Atom   1O    basis set group =>   2
Atom   2N    basis set group =>   3
Atom   3N    basis set group =>   3
Atom   4C    basis set group =>   4
Atom   5C    basis set group =>   4
Atom   6C    basis set group =>   4
Atom   7C    basis set group =>   4
Atom   8H    basis set group =>   5
Atom   9C    basis set group =>   4
Atom  10H    basis set group =>   5
Atom  11C    basis set group =>   4
Atom  12H    basis set group =>   5
Atom  13H    basis set group =>   5
Atom  14H    basis set group =>   5
Atom  15C    basis set group =>   4
Atom  16C    basis set group =>   4
Atom  17C    basis set group =>   4
Atom  18C    basis set group =>   4
Atom  19C    basis set group =>   4
Atom  20H    basis set group =>   5
Atom  21C    basis set group =>   4
Atom  22H    basis set group =>   5
Atom  23H    basis set group =>   5
Atom  24H    basis set group =>   5
Atom  25C    basis set group =>   4
Atom  26C    basis set group =>   4
Atom  27C    basis set group =>   4
Atom  28C    basis set group =>   4
Atom  29H    basis set group =>   5
Atom  30C    basis set group =>   4
Atom  31H    basis set group =>   5
Atom  32H    basis set group =>   5
Atom  33H    basis set group =>   5
Atom  34C    basis set group =>   4
Atom  35H    basis set group =>   5
Atom  36H    basis set group =>   5
Atom  37C    basis set group =>   4
Atom  38C    basis set group =>   4
Atom  39H    basis set group =>   5
Atom  40H    basis set group =>   5
Atom  41H    basis set group =>   5
Atom  42H    basis set group =>   5
Atom  43H    basis set group =>   5
------------------------------------------------------------------------------
                           ORCA GTO INTEGRAL CALCULATION
                           -- RI-GTO INTEGRALS CHOSEN --
------------------------------------------------------------------------------

                         BASIS SET STATISTICS AND STARTUP INFO

Gaussian basis set:
 # of primitive gaussian shells          ...  616
 # of primitive gaussian functions       ... 1310
 # of contracted shells                  ...  348
 # of contracted basis functions         ...  878
 Highest angular momentum                ...    3
 Maximum contraction depth               ...    8
Auxiliary gaussian basis set:
 # of primitive gaussian shells          ...  747
 # of primitive gaussian functions       ... 2037
 # of contracted shells                  ...  468
 # of contracted aux-basis functions     ... 1436
 Highest angular momentum                ...    4
 Maximum contraction depth               ...   12
Ratio of auxiliary to basis functions    ...  1.64
Integral package used                  ... LIBINT
 One Electron integrals                  ... done
 Ordering auxiliary basis shells         ... done
 Integral threshhold             Thresh  ...  2.500e-11
 Primitive cut-off               TCut    ...  2.500e-12
 Pre-screening matrix                    ... done
 Shell pair data                         ... 
 Ordering of the shell pairs             ... done (   0.005 sec) 43585 of 60726 pairs
 Determination of significant pairs      ... done (   0.000 sec)
 Creation of shell pair data             ... done (   0.003 sec)
 Storage of shell pair data              ... done (   0.003 sec)
 Shell pair data done in (   0.011 sec)
 Computing two index integrals           ... done
 Cholesky decomposition of the V-matrix  ... done


Timings:
 Total evaluation time                   ...   0.601 sec (  0.010 min)
 One electron matrix time                ...   0.212 sec (  0.004 min) = 35.3%
 Schwartz matrix evaluation time         ...   0.323 sec (  0.005 min) = 53.8%
 Two index repulsion integral time       ...   0.021 sec (  0.000 min) =  3.4%
 Cholesky decomposition of V             ...   0.023 sec (  0.000 min) =  3.8%
 Three index repulsion integral time     ...   0.000 sec (  0.000 min) =  0.0%

-------------------------------------------------------------------------------
                                 ORCA SCF
-------------------------------------------------------------------------------

------------
SCF SETTINGS
------------
Hamiltonian:
 Density Functional     Method          .... DFT(GTOs)
 Exchange Functional    Exchange        .... B88
   X-Alpha parameter    XAlpha          ....  0.666667
   Becke's b parameter  XBeta           ....  0.004200
 Correlation Functional Correlation     .... P86
 LDA part of GGA corr.  LDAOpt          .... PW91-LDA
 Gradients option       PostSCFGGA      .... off
   Density functional embedding theory  .... OFF
 RI-approximation to the Coulomb term is turned on
   Number of auxiliary basis functions  .... 1436
   RIJ-COSX (HFX calculated with COS-X)).... on


General Settings:
 Integral files         IntName         .... IM2_2_Solv
 Hartree-Fock type      HFTyp           .... UHF
 Total Charge           Charge          ....    1
 Multiplicity           Mult            ....    4
 Number of Electrons    NEL             ....  185
 Basis Dimension        Dim             ....  878
 Nuclear Repulsion      ENuc            ....   2424.6552447665 Eh

Convergence Acceleration:
 DIIS                   CNVDIIS         .... on
   Start iteration      DIISMaxIt       ....    12
   Startup error        DIISStart       ....  0.200000
   # of expansion vecs  DIISMaxEq       ....     5
   Bias factor          DIISBfac        ....   1.050
   Max. coefficient     DIISMaxC        ....  10.000
 Newton-Raphson         CNVNR           .... off
 SOSCF                  CNVSOSCF        .... off
 Level Shifting         CNVShift        .... on
   Level shift para.    LevelShift      ....    0.2500
   Turn off err/grad.   ShiftErr        ....    0.0010
 Zerner damping         CNVZerner       .... off
 Static damping         CNVDamp         .... on
   Fraction old density DampFac         ....    0.7000
   Max. Damping (<1)    DampMax         ....    0.9800
   Min. Damping (>=0)   DampMin         ....    0.0000
   Turn off err/grad.   DampErr         ....    0.1000
 Fernandez-Rico         CNVRico         .... off

SCF Procedure:
 Maximum # iterations   MaxIter         ....   125
 SCF integral mode      SCFMode         .... Direct
   Integral package                     .... LIBINT
 Reset frequency        DirectResetFreq ....    20
 Integral Threshold     Thresh          ....  2.500e-11 Eh
 Primitive CutOff       TCut            ....  2.500e-12 Eh

Convergence Tolerance:
 Convergence Check Mode ConvCheckMode   .... Total+1el-Energy
 Convergence forced     ConvForced      .... 0
 Energy Change          TolE            ....  1.000e-08 Eh
 1-El. energy change                    ....  1.000e-05 Eh
 DIIS Error             TolErr          ....  5.000e-07


Diagonalization of the overlap matrix:
Smallest eigenvalue                        ... 5.859e-06
Time for diagonalization                   ...    0.077 sec
Threshold for overlap eigenvalues          ... 1.000e-08
Number of eigenvalues below threshold      ... 0
Time for construction of square roots      ...    0.050 sec
Total time needed                          ...    0.129 sec

---------------------
INITIAL GUESS: MOREAD
---------------------
Guess MOs are being read from file: IM2_2_Tight2.ges
Input Geometry matches current geometry (good)
Input basis set matches current basis set (good)
MOs were renormalized
MOs were reorthogonalized (Cholesky)
                      ------------------
                      INITIAL GUESS DONE (   0.3 sec)
                      ------------------
-------------------
DFT GRID GENERATION
-------------------

General Integration Accuracy     IntAcc      ...  5.340
Radial Grid Type                 RadialGrid  ... Gauss-Chebyshev
Angular Grid (max. acc.)         AngularGrid ... Lebedev-590
Angular grid pruning method      GridPruning ... 3 (G Style)
Weight generation scheme         WeightScheme... Becke
Basis function cutoff            BFCut       ...    1.0000e-11
Integration weight cutoff        WCut        ...    1.0000e-14
Grids for H and He will be reduced by one unit

# of grid points (after initial pruning)     ... 623684 (   0.4 sec)
# of grid points (after weights+screening)   ... 534434 (   3.6 sec)
nearest neighbour list constructed           ...    0.0 sec
Grid point re-assignment to atoms done       ...    0.0 sec
Grid point division into batches done        ...    3.3 sec
Reduced shell lists constructed in    9.2 sec

Total number of grid points                  ...   534434
Total number of batches                      ...     8368
Average number of points per batch           ...       63
Average number of grid points per atom       ...    12146
Average number of shells per batch           ...   135.77 (39.01%)
Average number of basis functions per batch  ...   327.56 (37.31%)
Average number of large shells per batch     ...    86.42 (63.65%)
Average number of large basis fcns per batch ...   211.28 (64.50%)
Maximum spatial batch extension              ...  22.88, 24.16, 21.66 au
Average spatial batch extension              ...   1.60,  1.64,  1.59 au

Time for grid setup =   13.210 sec

--------------------
COSX GRID GENERATION
--------------------

General Integration Accuracy     IntAcc      ...  3.340
Radial Grid Type                 RadialGrid  ... Gauss-Chebyshev
Angular Grid (max. acc.)         AngularGrid ... Lebedev-50
Angular grid pruning method      GridPruning ... 3 (G Style)
Weight generation scheme         WeightScheme... Becke
Basis function cutoff            BFCut       ...    1.0000e-11
Integration weight cutoff        WCut        ...    1.0000e-14
Grids for H and He will be reduced by one unit

# of grid points (after initial pruning)     ...  20754 (   0.0 sec)
# of grid points (after weights+screening)   ...  18615 (   0.1 sec)
nearest neighbour list constructed           ...    0.0 sec
Grid point re-assignment to atoms done       ...    0.0 sec
Grid point division into batches done        ...    0.0 sec
Reduced shell lists constructed in    0.3 sec

Total number of grid points                  ...    18615
Total number of batches                      ...      313
Average number of points per batch           ...       59
Average number of grid points per atom       ...      423
Average number of shells per batch           ...   172.21 (49.48%)
Average number of basis functions per batch  ...   426.42 (48.57%)
Average number of large shells per batch     ...   113.88 (66.13%)
Average number of large basis fcns per batch ...   283.76 (66.55%)
Maximum spatial batch extension              ...  17.10, 20.75, 21.47 au
Average spatial batch extension              ...   4.42,  4.95,  4.33 au

Overlap Fitting                  UseSFitting ... on
Constructing numerical overlap ... done (      0.3 sec)
Inverting numerical overlap    ... done (      0.0 sec)
Obtaining analytic overlap     ... done (      0.0 sec)
Final contraction and storage  ... done (      0.0 sec)


General Integration Accuracy     IntAcc      ...  3.670
Radial Grid Type                 RadialGrid  ... Gauss-Chebyshev
Angular Grid (max. acc.)         AngularGrid ... Lebedev-50
Angular grid pruning method      GridPruning ... 3 (G Style)
Weight generation scheme         WeightScheme... Becke
Basis function cutoff            BFCut       ...    1.0000e-11
Integration weight cutoff        WCut        ...    1.0000e-14
Grids for H and He will be reduced by one unit

# of grid points (after initial pruning)     ...  26236 (   0.0 sec)
# of grid points (after weights+screening)   ...  23441 (   0.1 sec)
nearest neighbour list constructed           ...    0.0 sec
Grid point re-assignment to atoms done       ...    0.0 sec
Grid point division into batches done        ...    0.0 sec
Reduced shell lists constructed in    0.3 sec

Total number of grid points                  ...    23441
Total number of batches                      ...      386
Average number of points per batch           ...       60
Average number of grid points per atom       ...      533
Average number of shells per batch           ...   167.61 (48.16%)
Average number of basis functions per batch  ...   413.87 (47.14%)
Average number of large shells per batch     ...   110.01 (65.63%)
Average number of large basis fcns per batch ...   273.45 (66.07%)
Maximum spatial batch extension              ...  18.35, 19.61, 20.63 au
Average spatial batch extension              ...   4.15,  4.65,  4.26 au

Overlap Fitting                  UseSFitting ... on
Constructing numerical overlap ... done (      0.4 sec)
Inverting numerical overlap    ... done (      0.0 sec)
Obtaining analytic overlap     ... done (      0.0 sec)
Final contraction and storage  ... done (      0.0 sec)


General Integration Accuracy     IntAcc      ...  4.010
Radial Grid Type                 RadialGrid  ... Gauss-Chebyshev
Angular Grid (max. acc.)         AngularGrid ... Lebedev-110
Angular grid pruning method      GridPruning ... 3 (G Style)
Weight generation scheme         WeightScheme... Becke
Basis function cutoff            BFCut       ...    1.0000e-11
Integration weight cutoff        WCut        ...    1.0000e-14
Grids for H and He will be reduced by one unit

# of grid points (after initial pruning)     ...  49682 (   0.0 sec)
# of grid points (after weights+screening)   ...  44039 (   0.3 sec)
nearest neighbour list constructed           ...    0.0 sec
Grid point re-assignment to atoms done       ...    0.0 sec
Grid point division into batches done        ...    0.0 sec
Reduced shell lists constructed in    0.6 sec

Total number of grid points                  ...    44039
Total number of batches                      ...      708
Average number of points per batch           ...       62
Average number of grid points per atom       ...     1001
Average number of shells per batch           ...   160.87 (46.23%)
Average number of basis functions per batch  ...   395.90 (45.09%)
Average number of large shells per batch     ...   105.29 (65.45%)
Average number of large basis fcns per batch ...   261.14 (65.96%)
Maximum spatial batch extension              ...  21.17, 29.45, 21.85 au
Average spatial batch extension              ...   3.51,  3.93,  3.55 au

Overlap Fitting                  UseSFitting ... on
Constructing numerical overlap ... done (      0.5 sec)
Inverting numerical overlap    ... done (      0.0 sec)
Obtaining analytic overlap     ... done (      0.0 sec)
Final contraction and storage  ... done (      0.0 sec)

Time for X-Grid setup             =    3.082 sec

--------------------
CPCM SOLVATION MODEL
--------------------
CPCM parameters:
  Epsilon                                         ...       2.3741
  Refrac                                          ...       1.3300
  Rsolv                                           ...       1.3000
  Surface type                                    ...    GEPOL SES
  Epsilon function type                           ...         CPCM
Solvent:                                     ... TOLUENE
SMD-CDS solvent descriptors:
  Soln                                       ...    1.4961
  Soln25                                     ...    1.4936
  Sola                                       ...    0.0000
  Solb                                       ...    0.1400
  Solg                                       ...   40.2000
  Solc                                       ...    0.8570
  Solh                                       ...    0.0000
Radii:
 Radius for Cr used is    3.5716 Bohr (=   1.8900 Ang.)
 Radius for O  used is    4.3350 Bohr (=   2.2940 Ang.)
 Radius for N  used is    3.5716 Bohr (=   1.8900 Ang.)
 Radius for C  used is    3.4960 Bohr (=   1.8500 Ang.)
 Radius for H  used is    2.2677 Bohr (=   1.2000 Ang.)
Calculating surface                               ...        done! (  0.1s)
GEPOL surface points                              ...         1891
GEPOL Volume                                      ...    2442.8237
GEPOL Surface-area                                ...    1207.5184
Calculating surface distance matrix               ...        done! (  0.0s)
Performing Cholesky decomposition & store         ...        done! (  0.1s)
Overall time for CPCM initialization              ...                 0.2s
--------------
SCF ITERATIONS
--------------
ITER       Energy         Delta-E        Max-DP      RMS-DP      [F,P]     Damp
               ***  Starting incremental Fock matrix formation  ***
  0  -2003.7469082919   0.000000000000 0.00502333  0.00005069  0.0052902 0.7000
  1  -2003.7474296295  -0.000521337609 0.00365373  0.00004752  0.0032854 0.7000
                               ***Turning on DIIS***
  2  -2003.7477336571  -0.000304027623 0.00986113  0.00012036  0.0031796 0.0000
  3  -2003.7483699034  -0.000636246324 0.00226535  0.00001761  0.0026296 0.0000
  4  -2003.7484360054  -0.000066101993 0.00193053  0.00001133  0.0007651 0.0000
  5  -2003.7484553343  -0.000019328907 0.00075289  0.00000432  0.0007093 0.0000
  6  -2003.7484569059  -0.000001571635 0.00035236  0.00000224  0.0008145 0.0000
  7  -2003.7484588566  -0.000001950650 0.00024283  0.00000134  0.0003427 0.0000
  8  -2003.7484588019   0.000000054739 0.00019537  0.00000108  0.0005543 0.0000
  9  -2003.7484593674  -0.000000565572 0.00007433  0.00000058  0.0001886 0.0000
 10  -2003.7484595879  -0.000000220451 0.00007684  0.00000081  0.0000502 0.0000
 11  -2003.7484595718   0.000000016080 0.00009693  0.00000068  0.0000138 0.0000
 12  -2003.7484595251   0.000000046659 0.00009779  0.00000062  0.0000050 0.0000
 13  -2003.7484595893  -0.000000064204 0.00008993  0.00000073  0.0000022 0.0000
 14  -2003.7484595574   0.000000031942 0.00005918  0.00000037  0.0000024 0.0000
 15  -2003.7484595809  -0.000000023530 0.00005477  0.00000028  0.0000043 0.0000
 16  -2003.7484595441   0.000000036880 0.00006009  0.00000032  0.0000012 0.0000
                            ***DIIS convergence achieved***

               *****************************************************
               *                     SUCCESS                       *
               *           SCF CONVERGED AFTER  17 CYCLES          *
               *****************************************************

Setting up the final grid:

General Integration Accuracy     IntAcc      ...  5.340
Radial Grid Type                 RadialGrid  ... Gauss-Chebyshev
Angular Grid (max. acc.)         AngularGrid ... Lebedev-590
Angular grid pruning method      GridPruning ... 3 (G Style)
Weight generation scheme         WeightScheme... Becke
Basis function cutoff            BFCut       ...    1.0000e-11
Integration weight cutoff        WCut        ...    1.0000e-14
Grids for H and He will be reduced by one unit

# of grid points (after initial pruning)     ... 623684 (   0.2 sec)
# of grid points (after weights+screening)   ... 534434 (   3.6 sec)
nearest neighbour list constructed           ...    0.0 sec
Grid point re-assignment to atoms done       ...    0.0 sec
Grid point division into batches done        ...    3.3 sec
Reduced shell lists constructed in    9.2 sec

Total number of grid points                  ...   534434
Total number of batches                      ...     8368
Average number of points per batch           ...       63
Average number of grid points per atom       ...    12146
Average number of shells per batch           ...   135.77 (39.01%)
Average number of basis functions per batch  ...   327.56 (37.31%)
Average number of large shells per batch     ...    86.42 (63.65%)
Average number of large basis fcns per batch ...   211.28 (64.50%)
Maximum spatial batch extension              ...  22.88, 24.16, 21.66 au
Average spatial batch extension              ...   1.60,  1.64,  1.59 au

Final grid set up in   13.0 sec
Final integration                            ... done (  26.1 sec)
Change in XC energy                          ...     0.000000000
Integrated number of electrons               ...   184.999971257
Previous integrated no of electrons          ...   184.999971255

SMD CDS free energy correction energy :                -9.13981     Kcal/mol
Total Energy after SMD CDS correction =             -2003.763024816 Eh

----------------
TOTAL SCF ENERGY
----------------

Total Energy       :        -2003.76302482 Eh          -54525.16391 eV

Components:
Nuclear Repulsion  :         2424.65524477 Eh           65978.22348 eV
Electronic Energy  :        -4428.41826958 Eh         -120503.38739 eV
One Electron Energy:        -7536.27540153 Eh         -205072.47936 eV
Two Electron Energy:         3107.85713195 Eh           84569.09197 eV
CPCM Dielectric    :           -0.04869891 Eh              -1.32516 eV
SMD CDS (Gcds)     :           -0.01456521 Eh              -0.39634 eV

Virial components:
Potential Energy   :        -4001.04628381 Eh         -108874.00443 eV
Kinetic Energy     :         1997.28325899 Eh           54348.84052 eV
Virial Ratio       :            2.00324429


DFT components:
N(Alpha)           :       93.999985135323 electrons
N(Beta)            :       90.999986121449 electrons
N(Total)           :      184.999971256773 electrons
E(X)               :     -180.116842655831 Eh       
E(C)               :       -7.054969263387 Eh       
E(XC)              :     -187.171811919218 Eh       
DFET-embed. en.    :        0.000000000000 Eh       
CPCM Solvation Model Properties:
Surface-charge          :           -1.06258310
Charge-correction       :            0.00431420 Eh               0.11740 eV
Free-energy (cav+disp)  :            0.00574995 Eh               0.15646 eV
Corrected G(solv)       :        -2003.75296066 Eh          -54524.89005 eV

---------------
SCF CONVERGENCE
---------------

  Last Energy change         ...   -6.0001e-08  Tolerance :   1.0000e-08
  Last MAX-Density change    ...    4.8436e-05  Tolerance :   1.0000e-07
  Last RMS-Density change    ...    3.9152e-07  Tolerance :   5.0000e-09
  Last DIIS Error            ...    6.0846e-07  Tolerance :   5.0000e-07

             **** THE GBW FILE WAS UPDATED (IM2_2_Solv.gbw) ****
             **** DENSITY FILE WAS UPDATED (IM2_2_Solv.scfp) ****
             **** ENERGY FILE WAS UPDATED (IM2_2_Solv.en.tmp) ****
----------------------
UHF SPIN CONTAMINATION
----------------------

Warning: in a DFT calculation there is little theoretical justification to 
         calculate <S**2> as in Hartree-Fock theory. We will do it anyways
         but you should keep in mind that the values have only limited relevance

Expectation value of <S**2>     :     3.813358
Ideal value S*(S+1) for S=1.5   :     3.750000
Deviation                       :     0.063358

             **** THE GBW FILE WAS UPDATED (IM2_2_Solv.gbw) ****
             **** DENSITY FILE WAS UPDATED (IM2_2_Solv.scfp) ****
----------------
ORBITAL ENERGIES
----------------
                 SPIN UP ORBITALS
  NO   OCC          E(Eh)            E(eV) 
   0   1.0000    -214.631149     -5840.4105 
   1   1.0000     -24.361201      -662.9020 
   2   1.0000     -20.727022      -564.0110 
   3   1.0000     -20.724341      -563.9380 
   4   1.0000     -20.720967      -563.8462 
   5   1.0000     -18.922309      -514.9022 
   6   1.0000     -14.103245      -383.7688 
   7   1.0000     -14.075999      -383.0274 
   8   1.0000     -10.034727      -273.0588 
   9   1.0000     -10.031557      -272.9726 
  10   1.0000     -10.022641      -272.7299 
  11   1.0000     -10.011563      -272.4285 
  12   1.0000      -9.987996      -271.7872 
  13   1.0000      -9.985483      -271.7188 
  14   1.0000      -9.968697      -271.2620 
  15   1.0000      -9.968558      -271.2583 
  16   1.0000      -9.967746      -271.2362 
  17   1.0000      -9.966804      -271.2105 
  18   1.0000      -9.963263      -271.1142 
  19   1.0000      -9.962875      -271.1036 
  20   1.0000      -9.960715      -271.0448 
  21   1.0000      -9.959087      -271.0005 
  22   1.0000      -9.958536      -270.9855 
  23   1.0000      -9.958352      -270.9805 
  24   1.0000      -9.947398      -270.6824 
  25   1.0000      -9.944619      -270.6068 
  26   1.0000      -9.939394      -270.4647 
  27   1.0000      -9.924891      -270.0700 
  28   1.0000      -2.843479       -77.3750 
  29   1.0000      -1.840978       -50.0955 
  30   1.0000      -1.835271       -49.9403 
  31   1.0000      -1.825873       -49.6845 
  32   1.0000      -1.083294       -29.4779 
  33   1.0000      -0.953494       -25.9459 
  34   1.0000      -0.926394       -25.2085 
  35   1.0000      -0.853946       -23.2370 
  36   1.0000      -0.840040       -22.8587 
  37   1.0000      -0.777752       -21.1637 
  38   1.0000      -0.759402       -20.6644 
  39   1.0000      -0.755981       -20.5713 
  40   1.0000      -0.750513       -20.4225 
  41   1.0000      -0.745408       -20.2836 
  42   1.0000      -0.732993       -19.9458 
  43   1.0000      -0.713782       -19.4230 
  44   1.0000      -0.661843       -18.0097 
  45   1.0000      -0.651048       -17.7159 
  46   1.0000      -0.649361       -17.6700 
  47   1.0000      -0.621050       -16.8996 
  48   1.0000      -0.605281       -16.4705 
  49   1.0000      -0.594350       -16.1731 
  50   1.0000      -0.581830       -15.8324 
  51   1.0000      -0.572154       -15.5691 
  52   1.0000      -0.560834       -15.2611 
  53   1.0000      -0.548767       -14.9327 
  54   1.0000      -0.539086       -14.6693 
  55   1.0000      -0.524966       -14.2851 
  56   1.0000      -0.517524       -14.0825 
  57   1.0000      -0.505570       -13.7573 
  58   1.0000      -0.496446       -13.5090 
  59   1.0000      -0.471807       -12.8385 
  60   1.0000      -0.470617       -12.8061 
  61   1.0000      -0.462901       -12.5962 
  62   1.0000      -0.460026       -12.5179 
  63   1.0000      -0.456020       -12.4089 
  64   1.0000      -0.449650       -12.2356 
  65   1.0000      -0.440784       -11.9943 
  66   1.0000      -0.436693       -11.8830 
  67   1.0000      -0.433796       -11.8042 
  68   1.0000      -0.422510       -11.4971 
  69   1.0000      -0.408861       -11.1257 
  70   1.0000      -0.406267       -11.0551 
  71   1.0000      -0.405083       -11.0229 
  72   1.0000      -0.400352       -10.8941 
  73   1.0000      -0.397261       -10.8100 
  74   1.0000      -0.393503       -10.7078 
  75   1.0000      -0.389754       -10.6057 
  76   1.0000      -0.382686       -10.4134 
  77   1.0000      -0.377546       -10.2735 
  78   1.0000      -0.376138       -10.2352 
  79   1.0000      -0.369834       -10.0637 
  80   1.0000      -0.367076        -9.9886 
  81   1.0000      -0.361112        -9.8264 
  82   1.0000      -0.349414        -9.5081 
  83   1.0000      -0.338839        -9.2203 
  84   1.0000      -0.304359        -8.2820 
  85   1.0000      -0.300569        -8.1789 
  86   1.0000      -0.298670        -8.1272 
  87   1.0000      -0.298175        -8.1137 
  88   1.0000      -0.294973        -8.0266 
  89   1.0000      -0.283954        -7.7268 
  90   1.0000      -0.272164        -7.4060 
  91   1.0000      -0.268436        -7.3045 
  92   1.0000      -0.250446        -6.8150 
  93   1.0000      -0.236470        -6.4347 
  94   0.0000      -0.182736        -4.9725 
  95   0.0000      -0.170608        -4.6425 
  96   0.0000      -0.136448        -3.7129 
  97   0.0000      -0.112066        -3.0495 
  98   0.0000      -0.109214        -2.9719 
  99   0.0000      -0.097542        -2.6543 
 100   0.0000      -0.089825        -2.4443 
 101   0.0000      -0.070749        -1.9252 
 102   0.0000      -0.040770        -1.1094 
 103   0.0000      -0.030468        -0.8291 
 104   0.0000      -0.022134        -0.6023 
 105   0.0000      -0.013182        -0.3587 
 106   0.0000      -0.010350        -0.2816 
 107   0.0000      -0.005661        -0.1540 
 108   0.0000       0.001514         0.0412 
 109   0.0000       0.006383         0.1737 
 110   0.0000       0.014178         0.3858 
 111   0.0000       0.016855         0.4586 
 112   0.0000       0.026817         0.7297 
 113   0.0000       0.028267         0.7692 
 114   0.0000       0.031015         0.8440 
 115   0.0000       0.033501         0.9116 
 116   0.0000       0.036307         0.9880 
 117   0.0000       0.041397         1.1265 
 118   0.0000       0.044914         1.2222 
 119   0.0000       0.048299         1.3143 
 120   0.0000       0.050545         1.3754 
 121   0.0000       0.051070         1.3897 
 122   0.0000       0.052827         1.4375 
 123   0.0000       0.055783         1.5179 
 124   0.0000       0.064491         1.7549 
 125   0.0000       0.069556         1.8927 
 126   0.0000       0.072376         1.9694 
 127   0.0000       0.077150         2.0994 
 128   0.0000       0.079907         2.1744 
 129   0.0000       0.084414         2.2970 
 130   0.0000       0.089757         2.4424 
 131   0.0000       0.094444         2.5700 
 132   0.0000       0.101987         2.7752 
 133   0.0000       0.103231         2.8091 
 134   0.0000       0.107699         2.9306 
 135   0.0000       0.112370         3.0577 
 136   0.0000       0.117651         3.2014 
 137   0.0000       0.120089         3.2678 
 138   0.0000       0.121129         3.2961 
 139   0.0000       0.122586         3.3357 
 140   0.0000       0.127419         3.4673 
 141   0.0000       0.133635         3.6364 
 142   0.0000       0.138893         3.7795 
 143   0.0000       0.143443         3.9033 
 144   0.0000       0.147177         4.0049 
 145   0.0000       0.150378         4.0920 
 146   0.0000       0.152891         4.1604 
 147   0.0000       0.155122         4.2211 
 148   0.0000       0.160762         4.3746 
 149   0.0000       0.163691         4.4543 
 150   0.0000       0.169501         4.6124 
 151   0.0000       0.171998         4.6803 
 152   0.0000       0.175396         4.7728 
 153   0.0000       0.178074         4.8456 
 154   0.0000       0.184021         5.0075 
 155   0.0000       0.188697         5.1347 
 156   0.0000       0.193169         5.2564 
 157   0.0000       0.194397         5.2898 
 158   0.0000       0.197439         5.3726 
 159   0.0000       0.199852         5.4383 
 160   0.0000       0.203380         5.5342 
 161   0.0000       0.207848         5.6558 
 162   0.0000       0.210821         5.7367 
 163   0.0000       0.214166         5.8278 
 164   0.0000       0.222576         6.0566 
 165   0.0000       0.227879         6.2009 
 166   0.0000       0.233125         6.3437 
 167   0.0000       0.235592         6.4108 
 168   0.0000       0.236512         6.4358 
 169   0.0000       0.241395         6.5687 
 170   0.0000       0.247592         6.7373 
 171   0.0000       0.249967         6.8019 
 172   0.0000       0.255033         6.9398 
 173   0.0000       0.256308         6.9745 
 174   0.0000       0.264607         7.2003 
 175   0.0000       0.266592         7.2543 
 176   0.0000       0.267925         7.2906 
 177   0.0000       0.274451         7.4682 
 178   0.0000       0.279937         7.6175 
 179   0.0000       0.282290         7.6815 
 180   0.0000       0.285293         7.7632 
 181   0.0000       0.286617         7.7992 
 182   0.0000       0.293589         7.9890 
 183   0.0000       0.296989         8.0815 
 184   0.0000       0.301181         8.1956 
 185   0.0000       0.305181         8.3044 
 186   0.0000       0.310438         8.4475 
 187   0.0000       0.313253         8.5240 
 188   0.0000       0.316377         8.6091 
 189   0.0000       0.319909         8.7052 
 190   0.0000       0.322321         8.7708 
 191   0.0000       0.325582         8.8595 
 192   0.0000       0.328461         8.9379 
 193   0.0000       0.333499         9.0750 
 194   0.0000       0.338520         9.2116 
 195   0.0000       0.341725         9.2988 
 196   0.0000       0.343414         9.3448 
 197   0.0000       0.347570         9.4579 
 198   0.0000       0.350333         9.5330 
 199   0.0000       0.357261         9.7216 
 200   0.0000       0.361735         9.8433 
 201   0.0000       0.363280         9.8853 
 202   0.0000       0.366049         9.9607 
 203   0.0000       0.368042        10.0149 
 204   0.0000       0.372565        10.1380 
 205   0.0000       0.377372        10.2688 
 206   0.0000       0.378988        10.3128 
 207   0.0000       0.383742        10.4421 
 208   0.0000       0.387091        10.5333 
 209   0.0000       0.392303        10.6751 
 210   0.0000       0.393812        10.7162 
 211   0.0000       0.400024        10.8852 
 212   0.0000       0.401397        10.9226 
 213   0.0000       0.402606        10.9555 
 214   0.0000       0.408590        11.1183 
 215   0.0000       0.409641        11.1469 
 216   0.0000       0.414270        11.2729 
 217   0.0000       0.416124        11.3233 
 218   0.0000       0.418786        11.3958 
 219   0.0000       0.420940        11.4544 
 220   0.0000       0.426343        11.6014 
 221   0.0000       0.428876        11.6703 
 222   0.0000       0.433884        11.8066 
 223   0.0000       0.435628        11.8540 
 224   0.0000       0.445004        12.1092 
 225   0.0000       0.449309        12.2263 
 226   0.0000       0.455248        12.3879 
 227   0.0000       0.459799        12.5118 
 228   0.0000       0.462825        12.5941 
 229   0.0000       0.470463        12.8019 
 230   0.0000       0.473181        12.8759 
 231   0.0000       0.478028        13.0078 
 232   0.0000       0.481929        13.1140 
 233   0.0000       0.487692        13.2708 
 234   0.0000       0.493823        13.4376 
 235   0.0000       0.499764        13.5993 
 236   0.0000       0.503274        13.6948 
 237   0.0000       0.507421        13.8076 
 238   0.0000       0.520410        14.1611 
 239   0.0000       0.526969        14.3396 
 240   0.0000       0.529213        14.4006 
 241   0.0000       0.536978        14.6119 
 242   0.0000       0.539644        14.6845 
 243   0.0000       0.542872        14.7723 
 244   0.0000       0.547270        14.8920 
 245   0.0000       0.552143        15.0246 
 246   0.0000       0.562235        15.2992 
 247   0.0000       0.565107        15.3773 
 248   0.0000       0.575182        15.6515 
 249   0.0000       0.576460        15.6863 
 250   0.0000       0.579168        15.7600 
 251   0.0000       0.582896        15.8614 
 252   0.0000       0.589907        16.0522 
 253   0.0000       0.596011        16.2183 
 254   0.0000       0.596276        16.2255 
 255   0.0000       0.603329        16.4174 
 256   0.0000       0.611457        16.6386 
 257   0.0000       0.619154        16.8480 
 258   0.0000       0.624571        16.9954 
 259   0.0000       0.629769        17.1369 
 260   0.0000       0.634186        17.2571 
 261   0.0000       0.637349        17.3431 
 262   0.0000       0.644180        17.5290 
 263   0.0000       0.646218        17.5845 
 264   0.0000       0.649066        17.6620 
 265   0.0000       0.663604        18.0576 
 266   0.0000       0.672213        18.2919 
 267   0.0000       0.674913        18.3653 
 268   0.0000       0.679312        18.4850 
 269   0.0000       0.684357        18.6223 
 270   0.0000       0.688500        18.7350 
 271   0.0000       0.691125        18.8065 
 272   0.0000       0.700351        19.0575 
 273   0.0000       0.703290        19.1375 
 274   0.0000       0.708858        19.2890 
 275   0.0000       0.712927        19.3997 
 276   0.0000       0.714788        19.4504 
 277   0.0000       0.726995        19.7825 
 278   0.0000       0.732506        19.9325 
 279   0.0000       0.736845        20.0506 
 280   0.0000       0.741848        20.1867 
 281   0.0000       0.745545        20.2873 
 282   0.0000       0.751781        20.4570 
 283   0.0000       0.766375        20.8541 
 284   0.0000       0.770118        20.9560 
 285   0.0000       0.778084        21.1727 
 286   0.0000       0.781210        21.2578 
 287   0.0000       0.791532        21.5387 
 288   0.0000       0.798703        21.7338 
 289   0.0000       0.803332        21.8598 
 290   0.0000       0.811429        22.0801 
 291   0.0000       0.818806        22.2808 
 292   0.0000       0.823625        22.4120 
 293   0.0000       0.825148        22.4534 
 294   0.0000       0.833304        22.6754 
 295   0.0000       0.843326        22.9481 
 296   0.0000       0.845956        23.0196 
 297   0.0000       0.851140        23.1607 
 298   0.0000       0.858883        23.3714 
 299   0.0000       0.861386        23.4395 
 300   0.0000       0.870238        23.6804 
 301   0.0000       0.872539        23.7430 
 302   0.0000       0.877871        23.8881 
 303   0.0000       0.895102        24.3570 
 304   0.0000       0.901260        24.5245 
 305   0.0000       0.907869        24.7044 
 306   0.0000       0.914643        24.8887 
 307   0.0000       0.919900        25.0317 
 308   0.0000       0.923115        25.1192 
 309   0.0000       0.934690        25.4342 
 310   0.0000       0.943261        25.6674 
 311   0.0000       0.954034        25.9606 
 312   0.0000       0.958974        26.0950 
 313   0.0000       0.965336        26.2681 
 314   0.0000       0.966689        26.3049 
 315   0.0000       0.970628        26.4121 
 316   0.0000       0.981183        26.6994 
 317   0.0000       0.985156        26.8075 
 318   0.0000       0.992603        27.0101 
 319   0.0000       0.993421        27.0324 
 320   0.0000       1.007467        27.4146 
 321   0.0000       1.013479        27.5782 
 322   0.0000       1.023611        27.8539 
 323   0.0000       1.025373        27.9018 
 324   0.0000       1.026229        27.9251 
 325   0.0000       1.033509        28.1232 
 326   0.0000       1.036384        28.2014 
 327   0.0000       1.045581        28.4517 
 328   0.0000       1.056169        28.7398 
 329   0.0000       1.066685        29.0260 
 330   0.0000       1.071403        29.1544 
 331   0.0000       1.075298        29.2603 
 332   0.0000       1.077913        29.3315 
 333   0.0000       1.092036        29.7158 
 334   0.0000       1.097554        29.8660 
 335   0.0000       1.108265        30.1574 
 336   0.0000       1.111197        30.2372 
 337   0.0000       1.114048        30.3148 
 338   0.0000       1.118595        30.4385 
 339   0.0000       1.123984        30.5852 
 340   0.0000       1.125300        30.6210 
 341   0.0000       1.131644        30.7936 
 342   0.0000       1.138808        30.9885 
 343   0.0000       1.140401        31.0319 
 344   0.0000       1.150180        31.2980 
 345   0.0000       1.152078        31.3496 
 346   0.0000       1.163736        31.6669 
 347   0.0000       1.164964        31.7003 
 348   0.0000       1.171415        31.8758 
 349   0.0000       1.173981        31.9457 
 350   0.0000       1.179141        32.0861 
 351   0.0000       1.190217        32.3874 
 352   0.0000       1.198248        32.6060 
 353   0.0000       1.198575        32.6149 
 354   0.0000       1.201139        32.6847 
 355   0.0000       1.209679        32.9170 
 356   0.0000       1.216651        33.1068 
 357   0.0000       1.241150        33.7734 
 358   0.0000       1.242928        33.8218 
 359   0.0000       1.250640        34.0316 
 360   0.0000       1.263899        34.3924 
 361   0.0000       1.273098        34.6427 
 362   0.0000       1.289987        35.1023 
 363   0.0000       1.295362        35.2486 
 364   0.0000       1.298371        35.3305 
 365   0.0000       1.309600        35.6360 
 366   0.0000       1.311257        35.6811 
 367   0.0000       1.322957        35.9995 
 368   0.0000       1.328725        36.1564 
 369   0.0000       1.342928        36.5429 
 370   0.0000       1.347345        36.6631 
 371   0.0000       1.354330        36.8532 
 372   0.0000       1.358808        36.9750 
 373   0.0000       1.363740        37.1092 
 374   0.0000       1.371454        37.3192 
 375   0.0000       1.377763        37.4908 
 376   0.0000       1.385723        37.7074 
 377   0.0000       1.391944        37.8767 
 378   0.0000       1.399181        38.0736 
 379   0.0000       1.403698        38.1966 
 380   0.0000       1.406808        38.2812 
 381   0.0000       1.415752        38.5246 
 382   0.0000       1.423717        38.7413 
 383   0.0000       1.428353        38.8675 
 384   0.0000       1.432731        38.9866 
 385   0.0000       1.434124        39.0245 
 386   0.0000       1.438141        39.1338 
 387   0.0000       1.447882        39.3989 
 388   0.0000       1.453950        39.5640 
 389   0.0000       1.459667        39.7196 
 390   0.0000       1.467162        39.9235 
 391   0.0000       1.473853        40.1056 
 392   0.0000       1.478075        40.2205 
 393   0.0000       1.480010        40.2731 
 394   0.0000       1.490456        40.5574 
 395   0.0000       1.491181        40.5771 
 396   0.0000       1.500100        40.8198 
 397   0.0000       1.504313        40.9344 
 398   0.0000       1.507371        41.0176 
 399   0.0000       1.514402        41.2090 
 400   0.0000       1.521769        41.4094 
 401   0.0000       1.528228        41.5852 
 402   0.0000       1.531311        41.6691 
 403   0.0000       1.534431        41.7540 
 404   0.0000       1.537464        41.8365 
 405   0.0000       1.546108        42.0717 
 406   0.0000       1.555401        42.3246 
 407   0.0000       1.562269        42.5115 
 408   0.0000       1.564013        42.5590 
 409   0.0000       1.575120        42.8612 
 410   0.0000       1.577500        42.9260 
 411   0.0000       1.578142        42.9434 
 412   0.0000       1.581001        43.0212 
 413   0.0000       1.595039        43.4032 
 414   0.0000       1.596119        43.4326 
 415   0.0000       1.602128        43.5961 
 416   0.0000       1.605857        43.6976 
 417   0.0000       1.614755        43.9397 
 418   0.0000       1.621595        44.1259 
 419   0.0000       1.626592        44.2618 
 420   0.0000       1.632946        44.4347 
 421   0.0000       1.640500        44.6403 
 422   0.0000       1.645056        44.7643 
 423   0.0000       1.652358        44.9629 
 424   0.0000       1.663206        45.2581 
 425   0.0000       1.664421        45.2912 
 426   0.0000       1.675735        45.5991 
 427   0.0000       1.683958        45.8228 
 428   0.0000       1.691977        46.0410 
 429   0.0000       1.695121        46.1266 
 430   0.0000       1.696954        46.1765 
 431   0.0000       1.714104        46.6431 
 432   0.0000       1.718161        46.7535 
 433   0.0000       1.721307        46.8391 
 434   0.0000       1.730897        47.1001 
 435   0.0000       1.736094        47.2415 
 436   0.0000       1.753661        47.7195 
 437   0.0000       1.761064        47.9210 
 438   0.0000       1.772945        48.2443 
 439   0.0000       1.778201        48.3873 
 440   0.0000       1.790664        48.7264 
 441   0.0000       1.802233        49.0413 
 442   0.0000       1.811883        49.3038 
 443   0.0000       1.821603        49.5683 
 444   0.0000       1.827898        49.7396 
 445   0.0000       1.838735        50.0345 
 446   0.0000       1.849107        50.3168 
 447   0.0000       1.857314        50.5401 
 448   0.0000       1.861085        50.6427 
 449   0.0000       1.877099        51.0785 
 450   0.0000       1.882853        51.2350 
 451   0.0000       1.891770        51.4777 
 452   0.0000       1.894821        51.5607 
 453   0.0000       1.902756        51.7766 
 454   0.0000       1.914625        52.0996 
 455   0.0000       1.928647        52.4812 
 456   0.0000       1.936383        52.6917 
 457   0.0000       1.937720        52.7281 
 458   0.0000       1.941598        52.8336 
 459   0.0000       1.947577        52.9963 
 460   0.0000       1.957111        53.2557 
 461   0.0000       1.962330        53.3977 
 462   0.0000       1.973071        53.6900 
 463   0.0000       1.978288        53.8320 
 464   0.0000       1.982240        53.9395 
 465   0.0000       1.991797        54.1995 
 466   0.0000       1.995164        54.2912 
 467   0.0000       2.003821        54.5267 
 468   0.0000       2.012468        54.7620 
 469   0.0000       2.023134        55.0523 
 470   0.0000       2.029890        55.2361 
 471   0.0000       2.038258        55.4638 
 472   0.0000       2.043510        55.6067 
 473   0.0000       2.046445        55.6866 
 474   0.0000       2.052945        55.8635 
 475   0.0000       2.068180        56.2780 
 476   0.0000       2.073351        56.4188 
 477   0.0000       2.081669        56.6451 
 478   0.0000       2.088594        56.8335 
 479   0.0000       2.100800        57.1657 
 480   0.0000       2.110073        57.4180 
 481   0.0000       2.113180        57.5025 
 482   0.0000       2.115255        57.5590 
 483   0.0000       2.129988        57.9599 
 484   0.0000       2.134340        58.0784 
 485   0.0000       2.145730        58.3883 
 486   0.0000       2.160305        58.7849 
 487   0.0000       2.162595        58.8472 
 488   0.0000       2.176825        59.2344 
 489   0.0000       2.186599        59.5004 
 490   0.0000       2.202151        59.9236 
 491   0.0000       2.214659        60.2639 
 492   0.0000       2.226252        60.5794 
 493   0.0000       2.231446        60.7207 
 494   0.0000       2.235219        60.8234 
 495   0.0000       2.245414        61.1008 
 496   0.0000       2.250381        61.2360 
 497   0.0000       2.259787        61.4919 
 498   0.0000       2.271449        61.8093 
 499   0.0000       2.280795        62.0636 
 500   0.0000       2.293583        62.4116 
 501   0.0000       2.303353        62.6774 
 502   0.0000       2.309012        62.8314 
 503   0.0000       2.316132        63.0252 
 504   0.0000       2.320818        63.1527 
 505   0.0000       2.328694        63.3670 
 506   0.0000       2.335746        63.5589 
 507   0.0000       2.346896        63.8623 
 508   0.0000       2.355801        64.1046 
 509   0.0000       2.366103        64.3849 
 510   0.0000       2.375532        64.6415 
 511   0.0000       2.393900        65.1413 
 512   0.0000       2.397314        65.2342 
 513   0.0000       2.402137        65.3655 
 514   0.0000       2.407269        65.5051 
 515   0.0000       2.410676        65.5978 
 516   0.0000       2.421946        65.9045 
 517   0.0000       2.431038        66.1519 
 518   0.0000       2.434499        66.2461 
 519   0.0000       2.439374        66.3787 
 520   0.0000       2.450349        66.6774 
 521   0.0000       2.453012        66.7498 
 522   0.0000       2.461417        66.9786 
 523   0.0000       2.470832        67.2348 
 524   0.0000       2.472643        67.2840 
 525   0.0000       2.474638        67.3383 
 526   0.0000       2.484001        67.5931 
 527   0.0000       2.486701        67.6666 
 528   0.0000       2.489908        67.7539 
 529   0.0000       2.494462        67.8778 
 530   0.0000       2.500567        68.0439 
 531   0.0000       2.501808        68.0777 
 532   0.0000       2.503831        68.1327 
 533   0.0000       2.509593        68.2895 
 534   0.0000       2.513655        68.4000 
 535   0.0000       2.520482        68.5858 
 536   0.0000       2.526022        68.7365 
 537   0.0000       2.534253        68.9605 
 538   0.0000       2.535640        68.9983 
 539   0.0000       2.540863        69.1404 
 540   0.0000       2.544806        69.2477 
 541   0.0000       2.553480        69.4837 
 542   0.0000       2.555028        69.5258 
 543   0.0000       2.558663        69.6248 
 544   0.0000       2.565997        69.8243 
 545   0.0000       2.573974        70.0414 
 546   0.0000       2.577733        70.1437 
 547   0.0000       2.584951        70.3401 
 548   0.0000       2.588946        70.4488 
 549   0.0000       2.590886        70.5016 
 550   0.0000       2.598321        70.7039 
 551   0.0000       2.602017        70.8045 
 552   0.0000       2.609856        71.0178 
 553   0.0000       2.616418        71.1964 
 554   0.0000       2.625386        71.4404 
 555   0.0000       2.629853        71.5619 
 556   0.0000       2.632815        71.6425 
 557   0.0000       2.636676        71.7476 
 558   0.0000       2.641881        71.8892 
 559   0.0000       2.647685        72.0472 
 560   0.0000       2.656388        72.2840 
 561   0.0000       2.660690        72.4011 
 562   0.0000       2.664089        72.4935 
 563   0.0000       2.667485        72.5859 
 564   0.0000       2.677037        72.8459 
 565   0.0000       2.682976        73.0075 
 566   0.0000       2.687905        73.1416 
 567   0.0000       2.695479        73.3477 
 568   0.0000       2.702302        73.5334 
 569   0.0000       2.706941        73.6596 
 570   0.0000       2.716065        73.9079 
 571   0.0000       2.724271        74.1312 
 572   0.0000       2.726943        74.2039 
 573   0.0000       2.732113        74.3446 
 574   0.0000       2.737040        74.4787 
 575   0.0000       2.743300        74.6490 
 576   0.0000       2.747430        74.7614 
 577   0.0000       2.748535        74.7914 
 578   0.0000       2.757781        75.0430 
 579   0.0000       2.764431        75.2240 
 580   0.0000       2.773528        75.4715 
 581   0.0000       2.776681        75.5573 
 582   0.0000       2.786811        75.8330 
 583   0.0000       2.792421        75.9856 
 584   0.0000       2.801740        76.2392 
 585   0.0000       2.809786        76.4582 
 586   0.0000       2.812218        76.5243 
 587   0.0000       2.818778        76.7028 
 588   0.0000       2.826152        76.9035 
 589   0.0000       2.833606        77.1063 
 590   0.0000       2.840379        77.2906 
 591   0.0000       2.846726        77.4634 
 592   0.0000       2.851526        77.5940 
 593   0.0000       2.863400        77.9171 
 594   0.0000       2.867464        78.0277 
 595   0.0000       2.876892        78.2842 
 596   0.0000       2.882393        78.4339 
 597   0.0000       2.890655        78.6587 
 598   0.0000       2.896575        78.8198 
 599   0.0000       2.905049        79.0504 
 600   0.0000       2.908711        79.1500 
 601   0.0000       2.917781        79.3968 
 602   0.0000       2.921355        79.4941 
 603   0.0000       2.928388        79.6855 
 604   0.0000       2.943074        80.0851 
 605   0.0000       2.948195        80.2245 
 606   0.0000       2.959430        80.5302 
 607   0.0000       2.963213        80.6331 
 608   0.0000       2.968258        80.7704 
 609   0.0000       2.975383        80.9643 
 610   0.0000       2.976860        81.0045 
 611   0.0000       2.982116        81.1475 
 612   0.0000       2.984764        81.2196 
 613   0.0000       2.987681        81.2989 
 614   0.0000       2.995372        81.5082 
 615   0.0000       2.998383        81.5902 
 616   0.0000       3.002826        81.7111 
 617   0.0000       3.011510        81.9474 
 618   0.0000       3.012840        81.9835 
 619   0.0000       3.018059        82.1256 
 620   0.0000       3.025476        82.3274 
 621   0.0000       3.025694        82.3333 
 622   0.0000       3.029907        82.4479 
 623   0.0000       3.035553        82.6016 
 624   0.0000       3.041613        82.7665 
 625   0.0000       3.047841        82.9360 
 626   0.0000       3.051090        83.0244 
 627   0.0000       3.061268        83.3013 
 628   0.0000       3.068947        83.5103 
 629   0.0000       3.075361        83.6848 
 630   0.0000       3.083832        83.9153 
 631   0.0000       3.085731        83.9670 
 632   0.0000       3.091761        84.1311 
 633   0.0000       3.112256        84.6888 
 634   0.0000       3.117129        84.8214 
 635   0.0000       3.118855        84.8684 
 636   0.0000       3.125288        85.0434 
 637   0.0000       3.129022        85.1450 
 638   0.0000       3.133573        85.2689 
 639   0.0000       3.140736        85.4638 
 640   0.0000       3.144311        85.5610 
 641   0.0000       3.147421        85.6457 
 642   0.0000       3.149637        85.7060 
 643   0.0000       3.154781        85.8460 
 644   0.0000       3.162295        86.0504 
 645   0.0000       3.171686        86.3060 
 646   0.0000       3.172049        86.3158 
 647   0.0000       3.176854        86.4466 
 648   0.0000       3.182023        86.5873 
 649   0.0000       3.188506        86.7637 
 650   0.0000       3.196340        86.9768 
 651   0.0000       3.202413        87.1421 
 652   0.0000       3.206211        87.2454 
 653   0.0000       3.209067        87.3232 
 654   0.0000       3.222554        87.6901 
 655   0.0000       3.226351        87.7935 
 656   0.0000       3.232097        87.9498 
 657   0.0000       3.239149        88.1417 
 658   0.0000       3.242413        88.2305 
 659   0.0000       3.248050        88.3839 
 660   0.0000       3.255760        88.5937 
 661   0.0000       3.257134        88.6311 
 662   0.0000       3.260644        88.7266 
 663   0.0000       3.265829        88.8677 
 664   0.0000       3.274730        89.1099 
 665   0.0000       3.276583        89.1604 
 666   0.0000       3.286450        89.4289 
 667   0.0000       3.290911        89.5502 
 668   0.0000       3.293755        89.6276 
 669   0.0000       3.294810        89.6563 
 670   0.0000       3.300216        89.8034 
 671   0.0000       3.311472        90.1097 
 672   0.0000       3.320776        90.3629 
 673   0.0000       3.321804        90.3909 
 674   0.0000       3.327356        90.5420 
 675   0.0000       3.331493        90.6545 
 676   0.0000       3.336017        90.7776 
 677   0.0000       3.341181        90.9181 
 678   0.0000       3.349324        91.1397 
 679   0.0000       3.356494        91.3349 
 680   0.0000       3.359219        91.4090 
 681   0.0000       3.362139        91.4885 
 682   0.0000       3.366219        91.5995 
 683   0.0000       3.370048        91.7037 
 684   0.0000       3.374002        91.8113 
 685   0.0000       3.385892        92.1348 
 686   0.0000       3.391430        92.2855 
 687   0.0000       3.393687        92.3469 
 688   0.0000       3.398809        92.4863 
 689   0.0000       3.403741        92.6205 
 690   0.0000       3.419588        93.0517 
 691   0.0000       3.421270        93.0975 
 692   0.0000       3.426361        93.2360 
 693   0.0000       3.445840        93.7661 
 694   0.0000       3.446679        93.7889 
 695   0.0000       3.461067        94.1804 
 696   0.0000       3.472959        94.5040 
 697   0.0000       3.479921        94.6935 
 698   0.0000       3.492654        95.0399 
 699   0.0000       3.501721        95.2867 
 700   0.0000       3.515546        95.6629 
 701   0.0000       3.522154        95.8427 
 702   0.0000       3.526199        95.9528 
 703   0.0000       3.537259        96.2537 
 704   0.0000       3.561253        96.9066 
 705   0.0000       3.567183        97.0680 
 706   0.0000       3.571368        97.1819 
 707   0.0000       3.575242        97.2873 
 708   0.0000       3.586292        97.5880 
 709   0.0000       3.601415        97.9995 
 710   0.0000       3.606079        98.1264 
 711   0.0000       3.621073        98.5344 
 712   0.0000       3.630308        98.7857 
 713   0.0000       3.656330        99.4938 
 714   0.0000       3.666115        99.7601 
 715   0.0000       3.674296        99.9827 
 716   0.0000       3.688293       100.3636 
 717   0.0000       3.705535       100.8327 
 718   0.0000       3.711273       100.9889 
 719   0.0000       3.728072       101.4460 
 720   0.0000       3.749652       102.0332 
 721   0.0000       3.758599       102.2767 
 722   0.0000       3.770664       102.6050 
 723   0.0000       3.784895       102.9922 
 724   0.0000       3.789991       103.1309 
 725   0.0000       3.798863       103.3723 
 726   0.0000       3.807136       103.5974 
[...]
 12 H s       :     0.000087  s :     0.000087
      pz      :    -0.000004  p :    -0.000011
      px      :    -0.000003
      py      :    -0.000003
 13 H s       :    -0.000054  s :    -0.000054
      pz      :     0.000029  p :     0.000050
      px      :     0.000016
      py      :     0.000006
 14 H s       :     0.000030  s :     0.000030
      pz      :    -0.000010  p :    -0.000017
      px      :    -0.000003
      py      :    -0.000004
 15 C s       :     0.000343  s :     0.000343
      pz      :     0.001112  p :    -0.000738
      px      :    -0.000305
      py      :    -0.001545
      dz2     :     0.000015  d :     0.000659
      dxz     :    -0.000532
      dyz     :     0.000587
      dx2y2   :     0.000115
      dxy     :     0.000474
      f0      :    -0.000015  f :     0.000128
      f+1     :    -0.000040
      f-1     :     0.000068
      f+2     :    -0.000011
      f-2     :     0.000075
      f+3     :     0.000013
      f-3     :     0.000038
 16 C s       :     0.000753  s :     0.000753
      pz      :     0.001133  p :     0.005568
      px      :     0.001001
      py      :     0.003435
      dz2     :    -0.002746  d :    -0.004758
      dxz     :    -0.000195
      dyz     :    -0.001442
      dx2y2   :    -0.000208
      dxy     :    -0.000168
      f0      :    -0.000244  f :    -0.000671
      f+1     :    -0.000126
      f-1     :    -0.000053
      f+2     :    -0.000067
      f-2     :    -0.000149
      f+3     :    -0.000020
      f-3     :    -0.000012
 17 C s       :    -0.000235  s :    -0.000235
      pz      :    -0.001420  p :    -0.005065
      px      :    -0.000219
      py      :    -0.003425
      dz2     :     0.000101  d :     0.000761
      dxz     :     0.000061
      dyz     :     0.000530
      dx2y2   :     0.000032
      dxy     :     0.000038
      f0      :     0.000012  f :     0.000079
      f+1     :    -0.000002
      f-1     :     0.000034
      f+2     :     0.000005
      f-2     :     0.000021
      f+3     :     0.000004
      f-3     :     0.000005
 18 C s       :     0.000066  s :     0.000066
      pz      :    -0.000091  p :     0.001585
      px      :     0.000077
      py      :     0.001598
      dz2     :     0.000062  d :    -0.000390
      dxz     :    -0.000027
      dyz     :    -0.000398
      dx2y2   :    -0.000002
      dxy     :    -0.000026
      f0      :    -0.000005  f :    -0.000061
      f+1     :     0.000003
      f-1     :    -0.000012
      f+2     :    -0.000007
      f-2     :    -0.000032
      f+3     :    -0.000002
      f-3     :    -0.000006
 19 C s       :    -0.000075  s :    -0.000075
      pz      :    -0.000135  p :    -0.003048
      px      :    -0.000142
      py      :    -0.002771
      dz2     :     0.000011  d :     0.000390
      dxz     :    -0.000002
      dyz     :     0.000121
      dx2y2   :     0.000034
      dxy     :     0.000225
      f0      :     0.000001  f :     0.000058
      f+1     :     0.000003
      f-1     :     0.000019
      f+2     :     0.000003
      f-2     :     0.000003
      f+3     :     0.000008
      f-3     :     0.000020
 20 H s       :    -0.000018  s :    -0.000018
      pz      :     0.000001  p :     0.000045
      px      :     0.000008
      py      :     0.000036
 21 C s       :     0.000069  s :     0.000069
      pz      :    -0.000106  p :     0.002337
      px      :     0.000112
      py      :     0.002331
      dz2     :    -0.000170  d :    -0.000767
      dxz     :    -0.000020
      dyz     :    -0.000113
      dx2y2   :    -0.000079
      dxy     :    -0.000386
      f0      :    -0.000004  f :    -0.000086
      f+1     :    -0.000007
      f-1     :    -0.000012
      f+2     :    -0.000008
      f-2     :    -0.000034
      f+3     :    -0.000006
      f-3     :    -0.000014
 22 H s       :     0.000185  s :     0.000185
      pz      :    -0.000023  p :    -0.000121
      px      :    -0.000021
      py      :    -0.000078
 23 H s       :     0.000033  s :     0.000033
      pz      :    -0.000005  p :    -0.000070
      px      :    -0.000007
      py      :    -0.000058
 24 H s       :    -0.000266  s :    -0.000266
      pz      :     0.000014  p :     0.000065
      px      :     0.000001
      py      :     0.000050
 25 C s       :     0.001621  s :     0.001621
      pz      :     0.001063  p :     0.028453
      px      :     0.003449
      py      :     0.023941
      dz2     :     0.000095  d :    -0.001872
      dxz     :    -0.003808
      dyz     :     0.002142
      dx2y2   :    -0.000187
      dxy     :    -0.000113
      f0      :    -0.000208  f :    -0.000579
      f+1     :    -0.000008
      f-1     :     0.000161
      f+2     :    -0.000188
      f-2     :     0.000013
      f+3     :    -0.000168
      f-3     :    -0.000181
 26 C s       :     0.001046  s :     0.001046
      pz      :     0.000074  p :     0.016087
      px      :     0.002937
      py      :     0.013076
      dz2     :    -0.000398  d :     0.001968
      dxz     :     0.000102
      dyz     :     0.001968
      dx2y2   :     0.000098
      dxy     :     0.000198
      f0      :    -0.000149  f :     0.000319
      f+1     :    -0.000006
      f-1     :     0.000261
      f+2     :    -0.000024
      f-2     :     0.000136
      f+3     :     0.000037
      f-3     :     0.000063
 27 C s       :     0.001290  s :     0.001290
      pz      :     0.001627  p :     0.023256
      px      :     0.002817
      py      :     0.018812
      dz2     :    -0.000779  d :     0.000052
      dxz     :    -0.000475
      dyz     :     0.000135
      dx2y2   :     0.000219
      dxy     :     0.000952
      f0      :    -0.000224  f :    -0.000265
      f+1     :    -0.000028
      f-1     :     0.000057
      f+2     :    -0.000072
      f-2     :    -0.000048
      f+3     :     0.000037
      f-3     :     0.000014
 28 C s       :     0.000100  s :     0.000100
      pz      :     0.000177  p :     0.013009
      px      :    -0.000038
      py      :     0.012869
      dz2     :     0.000137  d :     0.003834
      dxz     :     0.000331
      dyz     :     0.001454
      dx2y2   :     0.000280
      dxy     :     0.001631
      f0      :     0.000004  f :     0.000393
      f+1     :    -0.000014
      f-1     :     0.000211
      f+2     :    -0.000007
      f-2     :     0.000007
      f+3     :     0.000089
      f-3     :     0.000103
 29 H s       :    -0.000788  s :    -0.000788
      pz      :     0.000147  p :     0.000608
      px      :     0.000044
      py      :     0.000417
 30 C s       :     0.000259  s :     0.000259
      pz      :     0.000216  p :     0.015311
      px      :     0.000259
      py      :     0.014836
      dz2     :     0.000079  d :     0.003372
      dxz     :     0.000209
      dyz     :     0.001483
      dx2y2   :     0.000077
      dxy     :     0.001523
      f0      :    -0.000007  f :     0.000311
      f+1     :    -0.000039
      f-1     :     0.000167
      f+2     :     0.000007
      f-2     :     0.000023
      f+3     :     0.000062
      f-3     :     0.000098
 31 H s       :    -0.000344  s :    -0.000344
      pz      :     0.000025  p :     0.000416
      px      :     0.000044
      py      :     0.000348
 32 H s       :    -0.000686  s :    -0.000686
      pz      :     0.000024  p :     0.000435
      px      :     0.000052
      py      :     0.000358
 33 H s       :    -0.002966  s :    -0.002966
      pz      :     0.000115  p :     0.000769
      px      :     0.000117
      py      :     0.000536
 34 C s       :    -0.010465  s :    -0.010465
      pz      :    -0.012112  p :    -0.127049
      px      :    -0.001554
      py      :    -0.113383
      dz2     :     0.001101  d :     0.031405
      dxz     :     0.003513
      dyz     :     0.011209
      dx2y2   :     0.002372
      dxy     :     0.013210
      f0      :     0.000282  f :     0.003638
      f+1     :     0.000111
      f-1     :     0.000680
      f+2     :     0.000680
      f-2     :     0.000143
      f+3     :     0.001618
      f-3     :     0.000122
 35 H s       :     0.010707  s :     0.010707
      pz      :    -0.000286  p :    -0.002976
      px      :    -0.000415
      py      :    -0.002275
 36 H s       :     0.008710  s :     0.008710
      pz      :    -0.000165  p :    -0.002969
      px      :    -0.000516
      py      :    -0.002289
 37 C s       :     0.001869  s :     0.001869
      pz      :     0.003717  p :     0.007483
      px      :     0.001095
      py      :     0.002671
      dz2     :    -0.003978  d :    -0.009155
      dxz     :     0.000186
      dyz     :    -0.001406
      dx2y2   :    -0.003860
      dxy     :    -0.000097
      f0      :    -0.000693  f :    -0.001225
      f+1     :    -0.000135
      f-1     :    -0.000017
      f+2     :    -0.000306
      f-2     :    -0.000007
      f+3     :    -0.000034
      f-3     :    -0.000031
 38 C s       :    -0.001687  s :    -0.001687
      pz      :    -0.000233  p :    -0.004677
      px      :    -0.000066
      py      :    -0.004378
      dz2     :    -0.000024  d :    -0.000390
      dxz     :     0.000032
      dyz     :    -0.000462
      dx2y2   :    -0.000004
      dxy     :     0.000067
      f0      :     0.000003  f :     0.000049
      f+1     :    -0.000001
      f-1     :     0.000017
      f+2     :     0.000007
      f-2     :     0.000006
      f+3     :     0.000010
      f-3     :     0.000008
 39 H s       :    -0.001132  s :    -0.001132
      pz      :     0.000210  p :     0.000235
      px      :     0.000010
      py      :     0.000015
 40 H s       :    -0.000848  s :    -0.000848
      pz      :     0.000093  p :     0.000205
      px      :     0.000060
      py      :     0.000052
 41 H s       :     0.000022  s :     0.000022
      pz      :     0.000011  p :    -0.000094
      px      :    -0.000037
      py      :    -0.000068
 42 H s       :    -0.001494  s :    -0.001494
      pz      :     0.000028  p :    -0.000036
      px      :     0.000003
      py      :    -0.000067
 43 H s       :    -0.000006  s :    -0.000006
      pz      :     0.000000  p :    -0.000093
      px      :    -0.000006
      py      :    -0.000087


                      *****************************
                      * MAYER POPULATION ANALYSIS *
                      *****************************

  NA   - Mulliken gross atomic population
  ZA   - Total nuclear charge
  QA   - Mulliken gross atomic charge
  VA   - Mayer's total valence
  BVA  - Mayer's bonded valence
  FA   - Mayer's free valence

  ATOM       NA         ZA         QA         VA         BVA        FA
  0 Cr    23.3803    24.0000     0.6197     6.0436     3.3370     2.7066
  1 O      8.3045     8.0000    -0.3045     2.0654     2.0644     0.0010
  2 N      7.1442     7.0000    -0.1442     3.2531     3.2456     0.0075
  3 N      7.1774     7.0000    -0.1774     3.2188     3.2139     0.0048
  4 C      5.6589     6.0000     0.3411     3.4342     3.4336     0.0006
  5 C      6.2581     6.0000    -0.2581     4.0114     4.0114     0.0000
  6 C      6.2734     6.0000    -0.2734     4.0445     4.0444     0.0001
  7 C      6.0860     6.0000    -0.0860     3.8601     3.8601     0.0000
  8 H      0.8197     1.0000     0.1803     0.9644     0.9644     0.0000
  9 C      6.0900     6.0000    -0.0900     3.8426     3.8426    -0.0000
 10 H      0.8341     1.0000     0.1659     0.9692     0.9692     0.0000
 11 C      6.1378     6.0000    -0.1378     3.8923     3.8923     0.0000
 12 H      0.8428     1.0000     0.1572     0.9613     0.9613     0.0000
 13 H      0.8448     1.0000     0.1552     0.9615     0.9615     0.0000
 14 H      0.8432     1.0000     0.1568     0.9611     0.9611     0.0000
 15 C      5.7118     6.0000     0.2882     3.6833     3.6833     0.0000
 16 C      5.8591     6.0000     0.1409     3.8836     3.8836     0.0000
 17 C      6.2046     6.0000    -0.2046     3.8870     3.8869     0.0000
 18 C      6.1865     6.0000    -0.1865     3.8981     3.8981     0.0000
 19 C      6.1354     6.0000    -0.1354     3.8885     3.8885     0.0000
 20 H      0.8179     1.0000     0.1821     0.9573     0.9573     0.0000
 21 C      6.1491     6.0000    -0.1491     3.9115     3.9115     0.0000
 22 H      0.8466     1.0000     0.1534     0.9731     0.9731     0.0000
 23 H      0.8436     1.0000     0.1564     0.9614     0.9614     0.0000
 24 H      0.8464     1.0000     0.1536     0.9620     0.9620     0.0000
 25 C      6.0811     6.0000    -0.0811     4.0927     4.0914     0.0013
 26 C      5.7323     6.0000     0.2677     3.5350     3.5342     0.0007
 27 C      6.1571     6.0000    -0.1571     3.9617     3.9610     0.0007
 28 C      6.0935     6.0000    -0.0935     3.8007     3.8004     0.0003
 29 H      0.8354     1.0000     0.1646     0.9740     0.9740     0.0000
 30 C      6.2690     6.0000    -0.2690     3.9432     3.9428     0.0004
 31 H      0.8424     1.0000     0.1576     0.9702     0.9702     0.0000
 32 H      0.8385     1.0000     0.1615     0.9668     0.9668     0.0000
 33 H      0.8308     1.0000     0.1692     0.9666     0.9666     0.0000
 34 C      6.3707     6.0000    -0.3707     3.7866     3.7427     0.0438
 35 H      0.8532     1.0000     0.1468     0.9703     0.9699     0.0004
 36 H      0.8443     1.0000     0.1557     0.9546     0.9542     0.0004
 37 C      6.2409     6.0000    -0.2409     3.8894     3.8892     0.0002
 38 C      6.3598     6.0000    -0.3598     3.8645     3.8645     0.0000
 39 H      0.8736     1.0000     0.1264     0.9579     0.9579     0.0000
 40 H      0.8757     1.0000     0.1243     0.9634     0.9634     0.0000
 41 H      0.8762     1.0000     0.1238     0.9700     0.9700     0.0000
 42 H      0.8615     1.0000     0.1385     0.9648     0.9648     0.0000
 43 H      0.8680     1.0000     0.1320     0.9691     0.9691     0.0000

  Mayer bond orders larger than 0.100000
B(  0-Cr,  1-O ) :   0.4141 B(  0-Cr,  2-N ) :   0.8042 B(  0-Cr,  3-N ) :   0.7570 
B(  0-Cr, 34-C ) :   0.9620 B(  1-O ,  4-C ) :   0.6483 B(  1-O , 15-C ) :   0.7179 
B(  1-O , 16-C ) :   0.1499 B(  2-N , 16-C ) :   0.9736 B(  2-N , 25-C ) :   1.4265 
B(  3-N , 26-C ) :   0.9482 B(  3-N , 27-C ) :   1.3609 B(  4-C ,  5-C ) :   1.3685 
B(  4-C ,  6-C ) :   1.3943 B(  5-C ,  7-C ) :   1.3922 B(  5-C ,  8-H ) :   0.9468 
B(  6-C ,  9-C ) :   1.3725 B(  6-C , 10-H ) :   0.9663 B(  7-C , 11-C ) :   1.3747 
B(  7-C , 12-H ) :   0.9610 B(  9-C , 11-C ) :   1.3851 B(  9-C , 14-H ) :   0.9613 
B( 11-C , 13-H ) :   0.9633 B( 15-C , 16-C ) :   1.3409 B( 15-C , 18-C ) :   1.3946 
B( 16-C , 17-C ) :   1.2988 B( 17-C , 21-C ) :   1.4067 B( 17-C , 22-H ) :   0.9606 
B( 18-C , 19-C ) :   1.3672 B( 18-C , 20-H ) :   0.9409 B( 19-C , 21-C ) :   1.3834 
B( 19-C , 23-H ) :   0.9640 B( 21-C , 24-H ) :   0.9664 B( 25-C , 26-C ) :   1.3326 
B( 25-C , 33-H ) :   0.9159 B( 26-C , 30-C ) :   1.2349 B( 27-C , 28-C ) :   1.3329 
B( 27-C , 29-H ) :   0.9547 B( 28-C , 30-C ) :   1.4420 B( 28-C , 32-H ) :   0.9625 
B( 30-C , 31-H ) :   0.9835 B( 34-C , 35-H ) :   0.9267 B( 34-C , 36-H ) :   0.9229 
B( 34-C , 37-C ) :   0.9636 B( 37-C , 38-C ) :   0.9513 B( 37-C , 39-H ) :   0.9608 
B( 37-C , 40-H ) :   0.9477 B( 38-C , 41-H ) :   0.9661 B( 38-C , 42-H ) :   0.9628 
B( 38-C , 43-H ) :   0.9670 

-------
TIMINGS
-------

Total SCF time: 0 days 0 hours 8 min 0 sec 

Total time                  ....     480.130 sec
Sum of individual times     ....     478.219 sec  ( 99.6%)

Fock matrix formation       ....     440.687 sec  ( 91.8%)
  Split-RI-J                ....      80.803 sec  ( 18.3% of F)
  XC integration            ....     270.199 sec  ( 61.3% of F)
    Basis function eval.    ....      57.642 sec  ( 21.3% of XC)
    Density eval.           ....     116.935 sec  ( 43.3% of XC)
    XC-Functional eval.     ....       6.645 sec  (  2.5% of XC)
    XC-Potential eval.      ....      85.118 sec  ( 31.5% of XC)
Diagonalization             ....       5.198 sec  (  1.1%)
Density matrix formation    ....       0.570 sec  (  0.1%)
Population analysis         ....       0.254 sec  (  0.1%)
Initial guess               ....       0.347 sec  (  0.1%)
Orbital Transformation      ....       0.000 sec  (  0.0%)
Orbital Orthonormalization  ....       0.280 sec  (  0.1%)
DIIS solution               ....       1.910 sec  (  0.4%)
Grid generation             ....      29.252 sec  (  6.1%)


-------------------------------------------------------------------------------
                          DFT DISPERSION CORRECTION                            
                                                                               
                              DFTD3 V3.1  Rev 1                                
                          USING Becke-Johnson damping                          
-------------------------------------------------------------------------------
The BP86 functional is recognized
Active option DFTDOPT                   ...         4   

molecular C6(AA) [au] = 25442.478331 


            DFT-D V3
 parameters
 s6 scaling factor         :     1.0000 
 a1 scaling factor         :     0.3946 
 s8 scaling factor         :     3.2822 
 a2 scaling factor         :     4.8516 
 ad hoc parameters k1-k3   :    16.0000     1.3333    -4.0000 

 Edisp/kcal,au: -67.657495452335  -0.107819070519 
 E6   /kcal   : -24.411089772 
 E8   /kcal   : -43.246405680 
 % E8         :  63.919607711 

-------------------------   ----------------
Dispersion correction           -0.107819071
-------------------------   ----------------


-------------------------   --------------------
FINAL SINGLE POINT ENERGY     -2003.870843886654
-------------------------   --------------------


                            ***************************************
                            *     ORCA property calculations      *
                            ***************************************

                                    ---------------------
                                    Active property flags
                                    ---------------------
   (+) Dipole Moment


------------------------------------------------------------------------------
                       ORCA ELECTRIC PROPERTIES CALCULATION
------------------------------------------------------------------------------

Dipole Moment Calculation                       ... on
Quadrupole Moment Calculation                   ... off
Polarizability Calculation                      ... off
GBWName                                         ... IM2_2_Solv.gbw
Electron density file                           ... IM2_2_Solv.scfp
The origin for moment calculation is the CENTER OF MASS  = (-1.772551, -2.894712 -2.567239)

-------------
DIPOLE MOMENT
-------------
                                X             Y             Z
Electronic contribution:      3.52026      18.31544      -5.29626
Nuclear contribution   :     -3.80133     -17.90260       5.04985
                        -----------------------------------------
Total Dipole Moment    :     -0.28107       0.41284      -0.24641
                        -----------------------------------------
Magnitude (a.u.)       :      0.55691
Magnitude (Debye)      :      1.41556



--------------------
Rotational spectrum 
--------------------
 
Rotational constants in cm-1:     0.010379     0.005985     0.004840 
Rotational constants in MHz :   311.146213   179.431414   145.107443 

 Dipole components along the rotational axes: 
x,y,z [a.u.] :     0.122435    -0.164742    -0.517709 
x,y,z [Debye]:     0.311206    -0.418742    -1.315911 

 

Timings for individual modules:

Sum of individual times         ...      480.755 sec (=   8.013 min)
GTO integral calculation        ...        0.611 sec (=   0.010 min)   0.1 %
SCF iterations                  ...      480.144 sec (=   8.002 min)  99.9 %
                             ****ORCA TERMINATED NORMALLY****
TOTAL RUN TIME: 0 days 0 hours 8 minutes 0 seconds 970 msec
