
                                 *****************
                                 * O   R   C   A *
                                 *****************

           --- An Ab Initio, DFT and Semiempirical electronic structure package ---

                  #######################################################
                  #                        -***-                        #
                  #          Department of theory and spectroscopy      #
                  #               Directorship: Frank Neese             #
                  #        Max Planck Institute fuer Kohlenforschung    #
                  #                Kaiser Wilhelm Platz 1               #
                  #                 D-45470 Muelheim/Ruhr               #
                  #                      Germany                        #
                  #                                                     #
                  #                  All rights reserved                #
                  #                        -***-                        #
                  #######################################################


                         Program Version 4.2.1 -  RELEASE  -


 With contributions from (in alphabetic order):
   Daniel Aravena         : Magnetic Suceptibility
   Michael Atanasov       : Ab Initio Ligand Field Theory (pilot matlab implementation)
   Alexander A. Auer      : GIAO ZORA, VPT2
   Ute Becker             : Parallelization
   Giovanni Bistoni       : ED, misc. LED, open-shell LED, HFLD
   Martin Brehm           : Molecular dynamics
   Dmytro Bykov           : SCF Hessian
   Vijay G. Chilkuri      : MRCI spin determinant printing, contributions to CSF-ICE
   Dipayan Datta          : RHF DLPNO-CCSD density
   Achintya Kumar Dutta   : EOM-CC, STEOM-CC
   Dmitry Ganyushin       : Spin-Orbit,Spin-Spin,Magnetic field MRCI
   Miquel Garcia          : C-PCM Hessian, Gaussian charge scheme
   Yang Guo               : DLPNO-NEVPT2, CIM, IAO-localization
   Andreas Hansen         : Spin unrestricted coupled pair/coupled cluster methods
   Benjamin Helmich-Paris : CASSCF linear response (MC-RPA)
   Lee Huntington         : MR-EOM, pCC
   Robert Izsak           : Overlap fitted RIJCOSX, COSX-SCS-MP3, EOM
   Christian Kollmar      : KDIIS, OOCD, Brueckner-CCSD(T), CCSD density
   Simone Kossmann        : Meta GGA functionals, TD-DFT gradient, OOMP2, MP2 Hessian
   Martin Krupicka        : AUTO-CI
   Lucas Lang             : DCDCAS
   Dagmar Lenk            : GEPOL surface, SMD
   Dimitrios Liakos       : Extrapolation schemes; Compound Job, initial MDCI parallelization
   Dimitrios Manganas     : Further ROCIS development; embedding schemes
   Dimitrios Pantazis     : SARC Basis sets
   Taras Petrenko         : DFT Hessian,TD-DFT gradient, ASA, ECA, R-Raman, ABS, FL, XAS/XES, NRVS
   Peter Pinski           : DLPNO-MP2, DLPNO-MP2 Gradient
   Christoph Reimann      : Effective Core Potentials
   Marius Retegan         : Local ZFS, SOC
   Christoph Riplinger    : Optimizer, TS searches, QM/MM, DLPNO-CCSD(T), (RO)-DLPNO pert. Triples
   Tobias Risthaus        : Range-separated hybrids, TD-DFT gradient, RPA, STAB
   Michael Roemelt        : Original ROCIS implementation
   Masaaki Saitow         : Open-shell DLPNO-CCSD energy and density
   Barbara Sandhoefer     : DKH picture change effects
   Avijit Sen             : IP-ROCIS
   Kantharuban Sivalingam : CASSCF convergence, NEVPT2, FIC-MRCI
   Bernardo de Souza      : ESD, SOC TD-DFT
   Georgi Stoychev        : AutoAux, RI-MP2 NMR
   Willem Van den Heuvel  : Paramagnetic NMR
   Boris Wezisla          : Elementary symmetry handling
   Frank Wennmohs         : Technical directorship


 We gratefully acknowledge several colleagues who have allowed us to
 interface, adapt or use parts of their codes:
   Stefan Grimme, W. Hujo, H. Kruse,             : VdW corrections, initial TS optimization,
                  C. Bannwarth                     DFT functionals, gCP, sTDA/sTD-DF
   Ed Valeev, F. Pavosevic, A. Kumar             : LibInt (2-el integral package), F12 methods
   Garnet Chan, S. Sharma, J. Yang, R. Olivares  : DMRG
   Ulf Ekstrom                                   : XCFun DFT Library
   Mihaly Kallay                                 : mrcc  (arbitrary order and MRCC methods)
   Andreas Klamt, Michael Diedenhofen            : otool_cosmo (COSMO solvation model)
   Jiri Pittner, Ondrej Demel                    : Mk-CCSD
   Frank Weinhold                                : gennbo (NPA and NBO analysis)
   Christopher J. Cramer and Donald G. Truhlar   : smd solvation model
   Lars Goerigk                                  : TD-DFT with DH, B97 family of functionals
   V. Asgeirsson, H. Jonsson                     : NEB implementation
   FAccTs GmbH                                   : IRC, NEB, NEB-TS, Multilevel, MM, QM/MM, CI optimization
   S Lehtola, MJT Oliveira, MAL Marques          : LibXC Library


 Your calculation uses the libint2 library for the computation of 2-el integrals
 For citations please refer to: http://libint.valeyev.net

 Your ORCA version has been built with support for libXC version: 4.2.3
 For citations please refer to: https://tddft.org/programs/libxc/

 This ORCA versions uses:
   CBLAS   interface :  Fast vector & matrix operations
   LAPACKE interface :  Fast linear algebra routines
   SCALAPACK package :  Parallel linear algebra routines


Your calculation utilizes the atom-pairwise dispersion correction
with the Becke-Johnson damping scheme (D3BJ)
Cite in your paper:
S.Grimme, S.Ehrlich, L.Goerigk, J Comput Chem, (2011), 32, 1456–1465 
S.Grimme, J.Antony, S.Ehrlich and H.Krieg, J.Chem.Phys., 132, (2010), 154104 
   

----- Orbital basis set information -----
Your calculation utilizes the basis: def2-TZVP
   F. Weigend and R. Ahlrichs, Phys. Chem. Chem. Phys. 7, 3297 (2005).

----- AuxJ basis set information -----
Your calculation utilizes the auxiliary basis: def2/J
   F. Weigend, Phys. Chem. Chem. Phys. 8, 1057 (2006).

================================================================================
                                        WARNINGS
                       Please study these warnings very carefully!
================================================================================


WARNING: your system is open-shell and RHF/RKS was chosen
  ===> : WILL SWITCH to UHF/UKS


INFO   : the flag for use of LIBINT has been found!

================================================================================
                                       INPUT FILE
================================================================================
NAME = IM1_4F_Freq.inp
|  1> #
|  2> # ORCA calc attempt 1 :-)
|  3> #
|  4> ! BP86 D3BJ RIJCOSX def2-TZVP def2/J Grid6 FinalGrid6 MORead Freq 
|  5> %moinp "IM1_4F.ges"
|  6> * xyz 1 4
|  7>   Cr  0.51630107034940     -2.23283403980234     -1.14395890086108
|  8>   S   -1.30116084670019     -2.72743628834954      0.37017833952086
|  9>   N   0.47964464456523     -0.50302751176783     -0.13945964273830
| 10>   N   2.28719958853963     -1.55560178016894     -1.72088812978905
| 11>   C   -2.74371622997408     -3.20324432258750     -0.57446742211526
| 12>   C   -2.99563434571248     -4.57722902652294     -0.66057847176435
| 13>   C   -3.54760666948941     -2.27119161040051     -1.23627863898317
| 14>   C   -4.06326763807742     -5.02232107619038     -1.44324476034870
| 15>   H   -2.37749828713737     -5.28816833098636     -0.11001664070457
| 16>   C   -4.62248505658234     -2.73145000710588     -1.99737383965853
| 17>   H   -3.34098200954824     -1.20522145111504     -1.15423234147873
| 18>   C   -4.87646794213149     -4.10224092021290     -2.10912776819545
| 19>   H   -4.26881919270953     -6.09054525177718     -1.51429564198211
| 20>   H   -5.71629599553901     -4.45255197703969     -2.70904973792054
| 21>   H   -5.26059828523142     -2.01233321815152     -2.51142087527778
| 22>   C   -1.61102656704592     -1.05734848024344      0.91098595556465
| 23>   C   -0.62973582008639     -0.08875592147695      0.61358835654299
| 24>   C   -0.83474994027542      1.22418551176485      1.07209977888230
| 25>   C   -2.74370194886838     -0.74506619192177      1.66469701972451
| 26>   C   -2.92889610439723      0.56228029558943      2.11047074368540
| 27>   H   -3.47628363512089     -1.51997948218572      1.89073245071343
| 28>   C   -1.97233154183077      1.53972417351066      1.81022716550287
| 29>   H   -0.11755520690411      2.00790182196660      0.83072610518013
| 30>   H   -3.81454015490525      0.81778915080561      2.69095093919747
| 31>   H   -2.11876433617167      2.56484316164277      2.15034459532963
| 32>   C   1.58747345062163      0.22247162790454     -0.31294150008055
| 33>   C   2.57052086230231     -0.30567742980562     -1.15252863862507
| 34>   C   3.35579807085044     -1.88918599594361     -2.48443571032644
| 35>   C   4.34113067341287     -0.88059515585347     -2.42431754436710
| 36>   H   3.38257984772248     -2.81734631878761     -3.05075432267451
| 37>   C   3.84972966972717      0.12165420382937     -1.58186309206171
| 38>   H   4.34494853154937      1.04660930596064     -1.30114556367007
| 39>   H   5.29480969221513     -0.89252544049202     -2.94234558106973
| 40>   H   1.72333278205464      1.18145903991439      0.19251831979836
| 41>   C   -0.59828123737093     -1.58067264424972     -2.70581295439986
| 42>   H   0.05942257649679     -1.49951761446629     -3.58152494505327
| 43>   H   -0.98870960955666     -0.58790679039743     -2.44131850873819
| 44>   H   -1.43073882355840     -2.26882811469304     -2.90209886258084
| 45>   C   1.13940674786780     -4.55257916306272     -1.31420620997388
| 46>   C   0.42292977113594     -4.36211388624943     -2.44816071737471
| 47>   H   2.22550751263612     -4.43937218969622     -1.29483603667683
| 48>   H   0.67591197972339     -4.95771686122951     -0.41128651239071
| 49>   H   0.89656386404671     -4.06424054736104     -3.38472286680802
| 50>   H   -0.64730391089192     -4.57329325259457     -2.48706739095345
| 51> *
| 52> 
| 53>                          ****END OF INPUT****
================================================================================

                       ****************************
                       * Single Point Calculation *
                       ****************************

---------------------------------
CARTESIAN COORDINATES (ANGSTROEM)
---------------------------------
  Cr     0.516301   -2.232834   -1.143959
  S     -1.301161   -2.727436    0.370178
  N      0.479645   -0.503028   -0.139460
  N      2.287200   -1.555602   -1.720888
  C     -2.743716   -3.203244   -0.574467
  C     -2.995634   -4.577229   -0.660578
  C     -3.547607   -2.271192   -1.236279
  C     -4.063268   -5.022321   -1.443245
  H     -2.377498   -5.288168   -0.110017
  C     -4.622485   -2.731450   -1.997374
  H     -3.340982   -1.205221   -1.154232
  C     -4.876468   -4.102241   -2.109128
  H     -4.268819   -6.090545   -1.514296
  H     -5.716296   -4.452552   -2.709050
  H     -5.260598   -2.012333   -2.511421
  C     -1.611027   -1.057348    0.910986
  C     -0.629736   -0.088756    0.613588
  C     -0.834750    1.224186    1.072100
  C     -2.743702   -0.745066    1.664697
  C     -2.928896    0.562280    2.110471
  H     -3.476284   -1.519979    1.890732
  C     -1.972332    1.539724    1.810227
  H     -0.117555    2.007902    0.830726
  H     -3.814540    0.817789    2.690951
  H     -2.118764    2.564843    2.150345
  C      1.587473    0.222472   -0.312942
  C      2.570521   -0.305677   -1.152529
  C      3.355798   -1.889186   -2.484436
  C      4.341131   -0.880595   -2.424318
  H      3.382580   -2.817346   -3.050754
  C      3.849730    0.121654   -1.581863
  H      4.344949    1.046609   -1.301146
  H      5.294810   -0.892525   -2.942346
  H      1.723333    1.181459    0.192518
  C     -0.598281   -1.580673   -2.705813
  H      0.059423   -1.499518   -3.581525
  H     -0.988710   -0.587907   -2.441319
  H     -1.430739   -2.268828   -2.902099
  C      1.139407   -4.552579   -1.314206
  C      0.422930   -4.362114   -2.448161
  H      2.225508   -4.439372   -1.294836
  H      0.675912   -4.957717   -0.411287
  H      0.896564   -4.064241   -3.384723
  H     -0.647304   -4.573293   -2.487067

----------------------------
CARTESIAN COORDINATES (A.U.)
----------------------------
  NO LB      ZA    FRAG     MASS         X           Y           Z
   0 Cr   24.0000    0    52.000    0.975668   -4.219445   -2.161769
   1 S    16.0000    0    32.060   -2.458838   -5.154108    0.699536
   2 N     7.0000    0    14.007    0.906397   -0.950584   -0.263541
   3 N     7.0000    0    14.007    4.322181   -2.939661   -3.252007
   4 C     6.0000    0    12.011   -5.184872   -6.053255   -1.085586
   5 C     6.0000    0    12.011   -5.660929   -8.649709   -1.248312
   6 C     6.0000    0    12.011   -6.704005   -4.291930   -2.336228
   7 C     6.0000    0    12.011   -7.678463   -9.490811   -2.727337
   8 H     1.0000    0     1.008   -4.492821   -9.993190   -0.207901
   9 C     6.0000    0    12.011   -8.735231   -5.161692   -3.774490
  10 H     1.0000    0     1.008   -6.313541   -2.277538   -2.181183
  11 C     6.0000    0    12.011   -9.215189   -7.752112   -3.985674
  12 H     1.0000    0     1.008   -8.066899  -11.509463   -2.861604
  13 H     1.0000    0     1.008  -10.802234   -8.414104   -5.119362
  14 H     1.0000    0     1.008   -9.941090   -3.802759   -4.745898
  15 C     6.0000    0    12.011   -3.044399   -1.998099    1.721514
  16 C     6.0000    0    12.011   -1.190028   -0.167724    1.159514
  17 C     6.0000    0    12.011   -1.577449    2.313375    2.025975
  18 C     6.0000    0    12.011   -5.184845   -1.407971    3.145821
  19 C     6.0000    0    12.011   -5.534812    1.062556    3.988212
  20 H     1.0000    0     1.008   -6.569224   -2.872345    3.572967
  21 C     6.0000    0    12.011   -3.727166    2.909657    3.420834
  22 H     1.0000    0     1.008   -0.222147    3.794385    1.569845
  23 H     1.0000    0     1.008   -7.208436    1.545398    5.085160
  24 H     1.0000    0     1.008   -4.003884    4.846851    4.063562
  25 C     6.0000    0    12.011    2.999890    0.420410   -0.591374
  26 C     6.0000    0    12.011    4.857580   -0.577647   -2.177963
  27 C     6.0000    0    12.011    6.341539   -3.570044   -4.694903
  28 C     6.0000    0    12.011    8.203548   -1.664084   -4.581296
  29 H     1.0000    0     1.008    6.392150   -5.324013   -5.765090
  30 C     6.0000    0    12.011    7.274935    0.229893   -2.989288
  31 H     1.0000    0     1.008    8.210763    1.977805   -2.458809
  32 H     1.0000    0     1.008   10.005740   -1.686629   -5.560227
  33 H     1.0000    0     1.008    3.256627    2.232634    0.363807
  34 C     6.0000    0    12.011   -1.130588   -2.987038   -5.113245
  35 H     1.0000    0     1.008    0.112292   -2.833678   -6.768101
  36 H     1.0000    0     1.008   -1.868390   -1.110983   -4.613423
  37 H     1.0000    0     1.008   -2.703705   -4.287464   -5.484172
  38 C     6.0000    0    12.011    2.153167   -8.603128   -2.483490
  39 C     6.0000    0    12.011    0.799221   -8.243201   -4.626353
  40 H     1.0000    0     1.008    4.205600   -8.389198   -2.446885
  41 H     1.0000    0     1.008    1.277289   -9.368727   -0.777219
  42 H     1.0000    0     1.008    1.694260   -7.680302   -6.396199
  43 H     1.0000    0     1.008   -1.223227   -8.642272   -4.699876

--------------------------------
INTERNAL COORDINATES (ANGSTROEM)
--------------------------------
 Cr     0   0   0     0.000000000000     0.00000000     0.00000000
 S      1   0   0     2.416694185640     0.00000000     0.00000000
 N      1   2   0     2.000648164359    81.29201612     0.00000000
 N      1   2   3     1.981810392143   157.56872362    43.65959506
 C      2   1   3     1.788774701922   109.27211435   124.63634903
 C      5   2   1     1.399539858867   116.02694234   100.38589019
 C      5   2   1     1.397482087116   122.45175676   282.89064911
 C      6   5   2     1.396608140793   119.00968371   183.46644164
 H      6   5   2     1.091166903531   120.43961234     4.53695599
 C      7   5   2     1.395158501128   118.78394581   177.34525012
 H      7   5   2     1.088906665200   120.53507494   357.01865371
 C      8   6   5     1.396868786993   120.14947691   358.94493796
 H      8   6   5     1.090138779560   119.53492787   180.15885491
 H     12   8   6     1.089924477009   119.95096361   180.76065258
 H     10   7   5     1.090211815916   119.37750695   179.52635516
 C      2   1   3     1.782605657177    97.41534094    15.17726159
 C      3   1   2     1.403362838005   122.62519387   341.32189465
 C     17   3   1     1.405730671578   124.47378768   195.57311098
 C     16   2   1     1.395906199006   120.96061859   169.58561824
 C     19  16   2     1.393616133167   119.36712362   177.72703004
 H     19  16   2     1.090072727171   119.88403560   357.18586560
 C     18  17   3     1.392296156043   120.24867169   179.76529793
 H     18  17   3     1.089422227976   120.24000722     1.34246388
 H     20  19  16     1.089315113581   119.90303499   179.40110155
 H     22  18  17     1.089950168200   119.23246919   180.50963613
 C      3   1   2     1.335563409210   112.90850680   164.01427235
 C     26   3   1     1.396506428192   117.16497894     0.66458029
 C      4   1   2     1.355059427905   141.68225161   136.10846607
 C     28   4   1     1.411293737768   110.52686595   180.94221647
 H     28   4   1     1.087619243654   121.52723905     1.58047226
 C     29  28   4     1.398466384872   107.00833059   359.94935673
 H     31  29  28     1.086087470147   127.28893874   179.57246723
 H     29  28   4     1.085356646179   125.82316989   180.12866290
 H     26   3   1     1.092521964925   121.32381560   181.51608247
 C      1   2   3     2.026572547699    97.76492665   265.42158963
 H     35   1   2     1.098194853480   107.99610307   191.51748222
 H     35   1   2     1.099079463082   107.49258411    73.16608859
 H     35   1   2     1.097757597128   110.67945375   313.17504534
 C      1   2   3     2.407999640471    92.39217916   151.36946969
 C     39   1   2     1.354794857059    77.69567981    99.69284597
 H     39   1   2     1.092156533498    98.98759377   220.40686016
 H     39   1   2     1.092807364020   100.89311533   339.73480323
 H     40  39   1     1.090965828859   121.82492648    91.54489661
 H     40  39   1     1.091563368827   121.40915393   266.82086413

---------------------------
INTERNAL COORDINATES (A.U.)
---------------------------
 Cr     0   0   0     0.000000000000     0.00000000     0.00000000
 S      1   0   0     4.566890160299     0.00000000     0.00000000
 N      1   2   0     3.780677120970    81.29201612     0.00000000
 N      1   2   3     3.745078890510   157.56872362    43.65959506
 C      2   1   3     3.380294301919   109.27211435   124.63634903
 C      5   2   1     2.644747046765   116.02694234   100.38589019
 C      5   2   1     2.640858421711   122.45175676   282.89064911
 C      6   5   2     2.639206902504   119.00968371   183.46644164
 H      6   5   2     2.062006614073   120.43961234     4.53695599
 C      7   5   2     2.636467480543   118.78394581   177.34525012
 H      7   5   2     2.057735382630   120.53507494   357.01865371
 C      8   6   5     2.639699452440   120.14947691   358.94493796
 H      8   6   5     2.060063741336   119.53492787   180.15885491
 H     12   8   6     2.059658768205   119.95096361   180.76065258
 H     10   7   5     2.060201760045   119.37750695   179.52635516
 C      2   1   3     3.368636496844    97.41534094    15.17726159
 C      3   1   2     2.651971430353   122.62519387   341.32189465
 C     17   3   1     2.656445987336   124.47378768   195.57311098
 C     16   2   1     2.637880424764   120.96061859   169.58561824
 C     19  16   2     2.633552827500   119.36712362   177.72703004
 H     19  16   2     2.059938920410   119.88403560   357.18586560
 C     18  17   3     2.631058432233   120.24867169   179.76529793
 H     18  17   3     2.058709655081   120.24000722     1.34246388
 H     20  19  16     2.058507238209   119.90303499   179.40110155
 H     22  18  17     2.059707317520   119.23246919   180.50963613
 C      3   1   2     2.523849077893   112.90850680   164.01427235
 C     26   3   1     2.639014693543   117.16497894     0.66458029
 C      4   1   2     2.560691213929   141.68225161   136.10846607
 C     28   4   1     2.666958658900   110.52686595   180.94221647
 H     28   4   1     2.055302508488   121.52723905     1.58047226
 C     29  28   4     2.642718474903   107.00833059   359.94935673
 H     31  29  28     2.052407876060   127.28893874   179.57246723
 H     29  28   4     2.051026818910   125.82316989   180.12866290
 H     26   3   1     2.064567309001   121.32381560   181.51608247
 C      1   2   3     3.829667105674    97.76492665   265.42158963
 H     35   1   2     2.075287514759   107.99610307   191.51748222
 H     35   1   2     2.076959184642   107.49258411    73.16608859
 H     35   1   2     2.074461220004   110.67945375   313.17504534
 C      1   2   3     4.550459851070    92.39217916   151.36946969
 C     39   1   2     2.560191247486    77.69567981    99.69284597
 H     39   1   2     2.063876743684    98.98759377   220.40686016
 H     39   1   2     2.065106635131   100.89311533   339.73480323
 H     40  39   1     2.061626638011   121.82492648    91.54489661
 H     40  39   1     2.062755824904   121.40915393   266.82086413

---------------------
BASIS SET INFORMATION
---------------------
There are 5 groups of distinct atoms

 Group   1 Type Cr  : 17s11p7d1f contracted to 6s4p4d1f pattern {842111/6311/4111/1}
 Group   2 Type S   : 14s9p3d1f contracted to 5s5p2d1f pattern {73211/51111/21/1}
 Group   3 Type N   : 11s6p2d1f contracted to 5s3p2d1f pattern {62111/411/11/1}
 Group   4 Type C   : 11s6p2d1f contracted to 5s3p2d1f pattern {62111/411/11/1}
 Group   5 Type H   : 5s1p contracted to 3s1p pattern {311/1}

Atom   0Cr   basis set group =>   1
Atom   1S    basis set group =>   2
Atom   2N    basis set group =>   3
Atom   3N    basis set group =>   3
Atom   4C    basis set group =>   4
Atom   5C    basis set group =>   4
Atom   6C    basis set group =>   4
Atom   7C    basis set group =>   4
Atom   8H    basis set group =>   5
Atom   9C    basis set group =>   4
Atom  10H    basis set group =>   5
Atom  11C    basis set group =>   4
Atom  12H    basis set group =>   5
Atom  13H    basis set group =>   5
Atom  14H    basis set group =>   5
Atom  15C    basis set group =>   4
Atom  16C    basis set group =>   4
Atom  17C    basis set group =>   4
Atom  18C    basis set group =>   4
Atom  19C    basis set group =>   4
Atom  20H    basis set group =>   5
Atom  21C    basis set group =>   4
Atom  22H    basis set group =>   5
Atom  23H    basis set group =>   5
Atom  24H    basis set group =>   5
Atom  25C    basis set group =>   4
Atom  26C    basis set group =>   4
Atom  27C    basis set group =>   4
Atom  28C    basis set group =>   4
Atom  29H    basis set group =>   5
Atom  30C    basis set group =>   4
Atom  31H    basis set group =>   5
Atom  32H    basis set group =>   5
Atom  33H    basis set group =>   5
Atom  34C    basis set group =>   4
Atom  35H    basis set group =>   5
Atom  36H    basis set group =>   5
Atom  37H    basis set group =>   5
Atom  38C    basis set group =>   4
Atom  39C    basis set group =>   4
Atom  40H    basis set group =>   5
Atom  41H    basis set group =>   5
Atom  42H    basis set group =>   5
Atom  43H    basis set group =>   5
---------------------------------
AUXILIARY/J BASIS SET INFORMATION
---------------------------------
There are 5 groups of distinct atoms

 Group   1 Type Cr  : 19s5p5d3f3g contracted to 8s5p5d2f3g pattern {121111111/11111/11111/21/111}
 Group   2 Type S   : 14s5p5d2f1g contracted to 8s4p3d1f1g pattern {71111111/2111/311/2/1}
 Group   3 Type N   : 12s5p4d2f1g contracted to 6s4p3d1f1g pattern {711111/2111/211/2/1}
 Group   4 Type C   : 12s5p4d2f1g contracted to 6s4p3d1f1g pattern {711111/2111/211/2/1}
 Group   5 Type H   : 5s2p1d contracted to 3s1p1d pattern {311/2/1}

Atom   0Cr   basis set group =>   1
Atom   1S    basis set group =>   2
Atom   2N    basis set group =>   3
Atom   3N    basis set group =>   3
Atom   4C    basis set group =>   4
Atom   5C    basis set group =>   4
Atom   6C    basis set group =>   4
Atom   7C    basis set group =>   4
Atom   8H    basis set group =>   5
Atom   9C    basis set group =>   4
Atom  10H    basis set group =>   5
Atom  11C    basis set group =>   4
Atom  12H    basis set group =>   5
Atom  13H    basis set group =>   5
Atom  14H    basis set group =>   5
Atom  15C    basis set group =>   4
Atom  16C    basis set group =>   4
Atom  17C    basis set group =>   4
Atom  18C    basis set group =>   4
Atom  19C    basis set group =>   4
Atom  20H    basis set group =>   5
Atom  21C    basis set group =>   4
Atom  22H    basis set group =>   5
Atom  23H    basis set group =>   5
Atom  24H    basis set group =>   5
Atom  25C    basis set group =>   4
Atom  26C    basis set group =>   4
Atom  27C    basis set group =>   4
Atom  28C    basis set group =>   4
Atom  29H    basis set group =>   5
Atom  30C    basis set group =>   4
Atom  31H    basis set group =>   5
Atom  32H    basis set group =>   5
Atom  33H    basis set group =>   5
Atom  34C    basis set group =>   4
Atom  35H    basis set group =>   5
Atom  36H    basis set group =>   5
Atom  37H    basis set group =>   5
Atom  38C    basis set group =>   4
Atom  39C    basis set group =>   4
Atom  40H    basis set group =>   5
Atom  41H    basis set group =>   5
Atom  42H    basis set group =>   5
Atom  43H    basis set group =>   5
------------------------------------------------------------------------------
                           ORCA GTO INTEGRAL CALCULATION
                           -- RI-GTO INTEGRALS CHOSEN --
------------------------------------------------------------------------------

                         BASIS SET STATISTICS AND STARTUP INFO

Gaussian basis set:
 # of primitive gaussian shells          ...  623
 # of primitive gaussian functions       ... 1327
 # of contracted shells                  ...  350
 # of contracted basis functions         ...  884
 Highest angular momentum                ...    3
 Maximum contraction depth               ...    8
Auxiliary gaussian basis set:
 # of primitive gaussian shells          ...  750
 # of primitive gaussian functions       ... 2044
 # of contracted shells                  ...  470
 # of contracted aux-basis functions     ... 1438
 Highest angular momentum                ...    4
 Maximum contraction depth               ...   12
Ratio of auxiliary to basis functions    ...  1.63
Integral package used                  ... LIBINT
 One Electron integrals                  ... done
 Ordering auxiliary basis shells         ... done
 Integral threshhold             Thresh  ...  1.000e-10
 Primitive cut-off               TCut    ...  1.000e-11
 Pre-screening matrix                    ... done
 Shell pair data                         ... 
 Ordering of the shell pairs             ... done (   0.005 sec) 43850 of 61425 pairs
 Determination of significant pairs      ... done (   0.000 sec)
 Creation of shell pair data             ... done (   0.003 sec)
 Storage of shell pair data              ... done (   0.003 sec)
 Shell pair data done in (   0.011 sec)
 Computing two index integrals           ... done
 Cholesky decomposition of the V-matrix  ... done


Timings:
 Total evaluation time                   ...   0.642 sec (  0.011 min)
 One electron matrix time                ...   0.216 sec (  0.004 min) = 33.6%
 Schwartz matrix evaluation time         ...   0.358 sec (  0.006 min) = 55.8%
 Two index repulsion integral time       ...   0.022 sec (  0.000 min) =  3.4%
 Cholesky decomposition of V             ...   0.024 sec (  0.000 min) =  3.7%
 Three index repulsion integral time     ...   0.000 sec (  0.000 min) =  0.0%

-------------------------------------------------------------------------------
                                 ORCA SCF
-------------------------------------------------------------------------------

------------
SCF SETTINGS
------------
Hamiltonian:
 Density Functional     Method          .... DFT(GTOs)
 Exchange Functional    Exchange        .... B88
   X-Alpha parameter    XAlpha          ....  0.666667
   Becke's b parameter  XBeta           ....  0.004200
 Correlation Functional Correlation     .... P86
 LDA part of GGA corr.  LDAOpt          .... PW91-LDA
 Gradients option       PostSCFGGA      .... off
   Density functional embedding theory  .... OFF
 RI-approximation to the Coulomb term is turned on
   Number of auxiliary basis functions  .... 1438
   RIJ-COSX (HFX calculated with COS-X)).... on


General Settings:
 Integral files         IntName         .... IM1_4F_Freq
 Hartree-Fock type      HFTyp           .... UHF
 Total Charge           Charge          ....    1
 Multiplicity           Mult            ....    4
 Number of Electrons    NEL             ....  193
 Basis Dimension        Dim             ....  884
 Nuclear Repulsion      ENuc            ....   2615.3929023727 Eh

Convergence Acceleration:
 DIIS                   CNVDIIS         .... on
   Start iteration      DIISMaxIt       ....    12
   Startup error        DIISStart       ....  0.200000
   # of expansion vecs  DIISMaxEq       ....     5
   Bias factor          DIISBfac        ....   1.050
   Max. coefficient     DIISMaxC        ....  10.000
 Newton-Raphson         CNVNR           .... off
 SOSCF                  CNVSOSCF        .... off
 Level Shifting         CNVShift        .... on
   Level shift para.    LevelShift      ....    0.2500
   Turn off err/grad.   ShiftErr        ....    0.0010
 Zerner damping         CNVZerner       .... off
 Static damping         CNVDamp         .... on
   Fraction old density DampFac         ....    0.7000
   Max. Damping (<1)    DampMax         ....    0.9800
   Min. Damping (>=0)   DampMin         ....    0.0000
   Turn off err/grad.   DampErr         ....    0.1000
 Fernandez-Rico         CNVRico         .... off

SCF Procedure:
 Maximum # iterations   MaxIter         ....   125
 SCF integral mode      SCFMode         .... Direct
   Integral package                     .... LIBINT
 Reset frequency        DirectResetFreq ....    20
 Integral Threshold     Thresh          ....  1.000e-10 Eh
 Primitive CutOff       TCut            ....  1.000e-11 Eh

Convergence Tolerance:
 Convergence Check Mode ConvCheckMode   .... Total+1el-Energy
 Convergence forced     ConvForced      .... 0
 Energy Change          TolE            ....  1.000e-06 Eh
 1-El. energy change                    ....  1.000e-03 Eh
 DIIS Error             TolErr          ....  1.000e-06


Diagonalization of the overlap matrix:
Smallest eigenvalue                        ... 6.135e-06
Time for diagonalization                   ...    0.080 sec
Threshold for overlap eigenvalues          ... 1.000e-08
Number of eigenvalues below threshold      ... 0
Time for construction of square roots      ...    0.053 sec
Total time needed                          ...    0.134 sec

---------------------
INITIAL GUESS: MOREAD
---------------------
Guess MOs are being read from file: IM1_4F.ges
Input Geometry matches current geometry (good)
Atom 0: N(Shells)= 15 and 17 - projection required
Input basis set needs projection
NBasis(read)= 980
NBasis(calc)= 884
Basis set overlap was calculated
Using GuessMode=FMatrix for the initial guess
C*T matrix was formed
Effective Fockian was calculated
Effective Fockian was diagonalized
Initial density was built
C*T matrix was formed
Effective Fockian was calculated
Effective Fockian was diagonalized
Initial density was built
                      ------------------
                      INITIAL GUESS DONE (   0.6 sec)
                      ------------------
-------------------
DFT GRID GENERATION
-------------------

General Integration Accuracy     IntAcc      ...  5.340
Radial Grid Type                 RadialGrid  ... Gauss-Chebyshev
Angular Grid (max. acc.)         AngularGrid ... Lebedev-590
Angular grid pruning method      GridPruning ... 3 (G Style)
Weight generation scheme         WeightScheme... Becke
Basis function cutoff            BFCut       ...    1.0000e-10
Integration weight cutoff        WCut        ...    1.0000e-14
Grids for H and He will be reduced by one unit

# of grid points (after initial pruning)     ... 624918 (   0.3 sec)
# of grid points (after weights+screening)   ... 535835 (   3.5 sec)
nearest neighbour list constructed           ...    0.0 sec
Grid point re-assignment to atoms done       ...    0.0 sec
Grid point division into batches done        ...    3.3 sec
Reduced shell lists constructed in    9.2 sec

Total number of grid points                  ...   535835
Total number of batches                      ...     8393
Average number of points per batch           ...       63
Average number of grid points per atom       ...    12178
Average number of shells per batch           ...   128.18 (36.62%)
Average number of basis functions per batch  ...   311.41 (35.23%)
Average number of large shells per batch     ...    80.28 (62.63%)
Average number of large basis fcns per batch ...   197.42 (63.40%)
Maximum spatial batch extension              ...  26.05, 23.13, 22.04 au
Average spatial batch extension              ...   1.58,  1.60,  1.62 au

Time for grid setup =   13.056 sec

--------------------
COSX GRID GENERATION
--------------------

General Integration Accuracy     IntAcc      ...  3.340
Radial Grid Type                 RadialGrid  ... Gauss-Chebyshev
Angular Grid (max. acc.)         AngularGrid ... Lebedev-50
Angular grid pruning method      GridPruning ... 3 (G Style)
Weight generation scheme         WeightScheme... Becke
Basis function cutoff            BFCut       ...    1.0000e-10
Integration weight cutoff        WCut        ...    1.0000e-14
Grids for H and He will be reduced by one unit

# of grid points (after initial pruning)     ...  20880 (   0.0 sec)
# of grid points (after weights+screening)   ...  18709 (   0.1 sec)
nearest neighbour list constructed           ...    0.0 sec
Grid point re-assignment to atoms done       ...    0.0 sec
Grid point division into batches done        ...    0.0 sec
Reduced shell lists constructed in    0.3 sec

Total number of grid points                  ...    18709
Total number of batches                      ...      316
Average number of points per batch           ...       59
Average number of grid points per atom       ...      425
Average number of shells per batch           ...   164.97 (47.13%)
Average number of basis functions per batch  ...   410.20 (46.40%)
Average number of large shells per batch     ...   107.35 (65.07%)
Average number of large basis fcns per batch ...   269.80 (65.77%)
Maximum spatial batch extension              ...  17.50, 17.91, 21.56 au
Average spatial batch extension              ...   4.42,  4.43,  5.23 au

Overlap Fitting                  UseSFitting ... on
Constructing numerical overlap ... done (      0.3 sec)
Inverting numerical overlap    ... done (      0.0 sec)
Obtaining analytic overlap     ... done (      0.0 sec)
Final contraction and storage  ... done (      0.0 sec)


General Integration Accuracy     IntAcc      ...  3.670
Radial Grid Type                 RadialGrid  ... Gauss-Chebyshev
Angular Grid (max. acc.)         AngularGrid ... Lebedev-50
Angular grid pruning method      GridPruning ... 3 (G Style)
Weight generation scheme         WeightScheme... Becke
Basis function cutoff            BFCut       ...    1.0000e-10
Integration weight cutoff        WCut        ...    1.0000e-14
Grids for H and He will be reduced by one unit

# of grid points (after initial pruning)     ...  26376 (   0.0 sec)
# of grid points (after weights+screening)   ...  23555 (   0.1 sec)
nearest neighbour list constructed           ...    0.0 sec
Grid point re-assignment to atoms done       ...    0.0 sec
Grid point division into batches done        ...    0.0 sec
Reduced shell lists constructed in    0.3 sec

Total number of grid points                  ...    23555
Total number of batches                      ...      386
Average number of points per batch           ...       61
Average number of grid points per atom       ...      535
Average number of shells per batch           ...   161.64 (46.18%)
Average number of basis functions per batch  ...   401.48 (45.42%)
Average number of large shells per batch     ...   104.42 (64.60%)
Average number of large basis fcns per batch ...   262.11 (65.29%)
Maximum spatial batch extension              ...  19.11, 20.24, 20.49 au
Average spatial batch extension              ...   4.25,  4.34,  4.79 au

Overlap Fitting                  UseSFitting ... on
Constructing numerical overlap ... done (      0.3 sec)
Inverting numerical overlap    ... done (      0.0 sec)
Obtaining analytic overlap     ... done (      0.0 sec)
Final contraction and storage  ... done (      0.0 sec)


General Integration Accuracy     IntAcc      ...  4.010
Radial Grid Type                 RadialGrid  ... Gauss-Chebyshev
Angular Grid (max. acc.)         AngularGrid ... Lebedev-110
Angular grid pruning method      GridPruning ... 3 (G Style)
Weight generation scheme         WeightScheme... Becke
Basis function cutoff            BFCut       ...    1.0000e-10
Integration weight cutoff        WCut        ...    1.0000e-14
Grids for H and He will be reduced by one unit

# of grid points (after initial pruning)     ...  49892 (   0.0 sec)
# of grid points (after weights+screening)   ...  44310 (   0.3 sec)
nearest neighbour list constructed           ...    0.0 sec
Grid point re-assignment to atoms done       ...    0.0 sec
Grid point division into batches done        ...    0.0 sec
Reduced shell lists constructed in    0.6 sec

Total number of grid points                  ...    44310
Total number of batches                      ...      714
Average number of points per batch           ...       62
Average number of grid points per atom       ...     1007
Average number of shells per batch           ...   153.70 (43.92%)
Average number of basis functions per batch  ...   380.44 (43.04%)
Average number of large shells per batch     ...    99.04 (64.44%)
Average number of large basis fcns per batch ...   247.64 (65.09%)
Maximum spatial batch extension              ...  21.41, 23.06, 19.55 au
Average spatial batch extension              ...   3.54,  3.59,  3.76 au

Overlap Fitting                  UseSFitting ... on
Constructing numerical overlap ... done (      0.5 sec)
Inverting numerical overlap    ... done (      0.0 sec)
Obtaining analytic overlap     ... done (      0.0 sec)
Final contraction and storage  ... done (      0.0 sec)

Time for X-Grid setup             =    2.988 sec
--------------
SCF ITERATIONS
--------------
ITER       Energy         Delta-E        Max-DP      RMS-DP      [F,P]     Damp
               ***  Starting incremental Fock matrix formation  ***
  0  -2326.6961919825   0.000000000000 0.00024143  0.00000214  0.0002149 0.7000
  1  -2326.6961917377   0.000000244803 0.00021682  0.00000238  0.0000949 0.7000
                               ***Turning on DIIS***
  2  -2326.6961913668   0.000000370889 0.00121685  0.00001204  0.0000394 0.0000
  3  -2326.6961913394   0.000000027429 0.00017840  0.00000194  0.0000490 0.0000
  4  -2326.6961914976  -0.000000158250 0.00011374  0.00000102  0.0001058 0.0000
  5  -2326.6961917623  -0.000000264677 0.00024623  0.00000189  0.0000854 0.0000
                 **** Energy Check signals convergence ****

               *****************************************************
               *                     SUCCESS                       *
               *           SCF CONVERGED AFTER   6 CYCLES          *
               *****************************************************

Setting up the final grid:

General Integration Accuracy     IntAcc      ...  5.340
Radial Grid Type                 RadialGrid  ... Gauss-Chebyshev
Angular Grid (max. acc.)         AngularGrid ... Lebedev-590
Angular grid pruning method      GridPruning ... 3 (G Style)
Weight generation scheme         WeightScheme... Becke
Basis function cutoff            BFCut       ...    1.0000e-10
Integration weight cutoff        WCut        ...    1.0000e-14
Grids for H and He will be reduced by one unit

# of grid points (after initial pruning)     ... 624918 (   0.2 sec)
# of grid points (after weights+screening)   ... 535835 (   3.5 sec)
nearest neighbour list constructed           ...    0.0 sec
Grid point re-assignment to atoms done       ...    0.0 sec
Grid point division into batches done        ...    3.3 sec
Reduced shell lists constructed in    9.3 sec

Total number of grid points                  ...   535835
Total number of batches                      ...     8393
Average number of points per batch           ...       63
Average number of grid points per atom       ...    12178
Average number of shells per batch           ...   128.18 (36.62%)
Average number of basis functions per batch  ...   311.41 (35.23%)
Average number of large shells per batch     ...    80.28 (62.63%)
Average number of large basis fcns per batch ...   197.42 (63.40%)
Maximum spatial batch extension              ...  26.05, 23.13, 22.04 au
Average spatial batch extension              ...   1.58,  1.60,  1.62 au

Final grid set up in   13.0 sec
Final integration                            ... done (  24.8 sec)
Change in XC energy                          ...     0.000000009
Integrated number of electrons               ...   192.999991960
Previous integrated no of electrons          ...   192.999991981

----------------
TOTAL SCF ENERGY
----------------

Total Energy       :        -2326.69619160 Eh          -63312.62213 eV

Components:
Nuclear Repulsion  :         2615.39290237 Eh           71168.45901 eV
Electronic Energy  :        -4942.08909398 Eh         -134481.08113 eV
One Electron Energy:        -8364.17556093 Eh         -227600.78801 eV
Two Electron Energy:         3422.08646695 Eh           93119.70688 eV

Virial components:
Potential Energy   :        -4646.47890135 Eh         -126437.11884 eV
Kinetic Energy     :         2319.78270974 Eh           63124.49672 eV
Virial Ratio       :            2.00298023


DFT components:
N(Alpha)           :       97.999996993086 electrons
N(Beta)            :       94.999994967164 electrons
N(Total)           :      192.999991960250 electrons
E(X)               :     -196.802081392806 Eh       
E(C)               :       -7.452830264948 Eh       
E(XC)              :     -204.254911657755 Eh       
DFET-embed. en.    :        0.000000000000 Eh       

---------------
SCF CONVERGENCE
---------------

  Last Energy change         ...    1.4850e-07  Tolerance :   1.0000e-06
  Last MAX-Density change    ...    2.3464e-04  Tolerance :   1.0000e-05
  Last RMS-Density change    ...    1.4854e-06  Tolerance :   1.0000e-06
  Last DIIS Error            ...    2.0261e-05  Tolerance :   1.0000e-06

             **** THE GBW FILE WAS UPDATED (IM1_4F_Freq.gbw) ****
             **** DENSITY FILE WAS UPDATED (IM1_4F_Freq.scfp) ****
             **** ENERGY FILE WAS UPDATED (IM1_4F_Freq.en.tmp) ****
----------------------
UHF SPIN CONTAMINATION
----------------------

Warning: in a DFT calculation there is little theoretical justification to 
         calculate <S**2> as in Hartree-Fock theory. We will do it anyways
         but you should keep in mind that the values have only limited relevance

Expectation value of <S**2>     :     3.817622
Ideal value S*(S+1) for S=1.5   :     3.750000
Deviation                       :     0.067622

             **** THE GBW FILE WAS UPDATED (IM1_4F_Freq.gbw) ****
             **** DENSITY FILE WAS UPDATED (IM1_4F_Freq.scfp) ****
----------------
ORBITAL ENERGIES
----------------
                 SPIN UP ORBITALS
  NO   OCC          E(Eh)            E(eV) 
   0   1.0000    -214.695630     -5842.1651 
   1   1.0000     -88.266940     -2401.8656 
   2   1.0000     -24.429279      -664.7545 
   3   1.0000     -20.794342      -565.8428 
   4   1.0000     -20.792647      -565.7967 
   5   1.0000     -20.789762      -565.7182 
   6   1.0000     -14.160610      -385.3298 
   7   1.0000     -14.138005      -384.7147 
   8   1.0000     -10.084031      -274.4004 
   9   1.0000     -10.076604      -274.1983 
  10   1.0000     -10.064474      -273.8683 
  11   1.0000     -10.063718      -273.8477 
  12   1.0000     -10.057410      -273.6760 
  13   1.0000     -10.054565      -273.5986 
  14   1.0000     -10.052517      -273.5429 
  15   1.0000     -10.046779      -273.3867 
  16   1.0000     -10.032842      -273.0075 
  17   1.0000     -10.030749      -272.9506 
  18   1.0000     -10.029558      -272.9181 
  19   1.0000     -10.028001      -272.8758 
  20   1.0000     -10.025755      -272.8147 
  21   1.0000     -10.022265      -272.7197 
  22   1.0000     -10.022157      -272.7168 
  23   1.0000     -10.021459      -272.6978 
  24   1.0000     -10.021008      -272.6855 
  25   1.0000     -10.017995      -272.6035 
  26   1.0000     -10.009977      -272.3853 
  27   1.0000      -9.990736      -271.8618 
  28   1.0000      -7.846864      -213.5240 
  29   1.0000      -5.867441      -159.6612 
  30   1.0000      -5.864098      -159.5702 
  31   1.0000      -5.859776      -159.4526 
  32   1.0000      -2.906450       -79.0885 
  33   1.0000      -1.901122       -51.7322 
  34   1.0000      -1.897405       -51.6310 
  35   1.0000      -1.890712       -51.4489 
  36   1.0000      -1.015416       -27.6309 
  37   1.0000      -0.989116       -26.9152 
  38   1.0000      -0.925767       -25.1914 
  39   1.0000      -0.906692       -24.6724 
  40   1.0000      -0.864268       -23.5179 
  41   1.0000      -0.851471       -23.1697 
  42   1.0000      -0.832007       -22.6401 
  43   1.0000      -0.812451       -22.1079 
  44   1.0000      -0.808532       -22.0013 
  45   1.0000      -0.801828       -21.8189 
  46   1.0000      -0.782945       -21.3050 
  47   1.0000      -0.759203       -20.6590 
  48   1.0000      -0.721173       -19.6241 
  49   1.0000      -0.716563       -19.4987 
  50   1.0000      -0.682501       -18.5718 
  51   1.0000      -0.676643       -18.4124 
  52   1.0000      -0.673108       -18.3162 
  53   1.0000      -0.664061       -18.0700 
  54   1.0000      -0.651801       -17.7364 
  55   1.0000      -0.637305       -17.3419 
  56   1.0000      -0.611090       -16.6286 
  57   1.0000      -0.598376       -16.2826 
  58   1.0000      -0.595383       -16.2012 
  59   1.0000      -0.584303       -15.8997 
  60   1.0000      -0.573607       -15.6086 
  61   1.0000      -0.555668       -15.1205 
  62   1.0000      -0.551121       -14.9968 
  63   1.0000      -0.534375       -14.5411 
  64   1.0000      -0.529953       -14.4208 
  65   1.0000      -0.527187       -14.3455 
  66   1.0000      -0.519335       -14.1318 
  67   1.0000      -0.517094       -14.0708 
  68   1.0000      -0.506902       -13.7935 
  69   1.0000      -0.502839       -13.6829 
  70   1.0000      -0.499953       -13.6044 
  71   1.0000      -0.490056       -13.3351 
  72   1.0000      -0.486544       -13.2395 
  73   1.0000      -0.475729       -12.9452 
  74   1.0000      -0.471195       -12.8219 
  75   1.0000      -0.467950       -12.7336 
  76   1.0000      -0.466283       -12.6882 
  77   1.0000      -0.461994       -12.5715 
  78   1.0000      -0.459638       -12.5074 
  79   1.0000      -0.453908       -12.3515 
  80   1.0000      -0.445275       -12.1166 
  81   1.0000      -0.440291       -11.9809 
  82   1.0000      -0.438363       -11.9285 
  83   1.0000      -0.430081       -11.7031 
  84   1.0000      -0.428271       -11.6538 
  85   1.0000      -0.425245       -11.5715 
  86   1.0000      -0.417545       -11.3620 
  87   1.0000      -0.407013       -11.0754 
  88   1.0000      -0.371975       -10.1220 
  89   1.0000      -0.365667        -9.9503 
  90   1.0000      -0.365059        -9.9337 
  91   1.0000      -0.356615        -9.7040 
  92   1.0000      -0.354551        -9.6478 
  93   1.0000      -0.345646        -9.4055 
  94   1.0000      -0.336155        -9.1472 
  95   1.0000      -0.330156        -8.9840 
  96   1.0000      -0.315606        -8.5881 
  97   1.0000      -0.304958        -8.2983 
  98   0.0000      -0.249657        -6.7935 
  99   0.0000      -0.221649        -6.0314 
 100   0.0000      -0.212120        -5.7721 
 101   0.0000      -0.186934        -5.0867 
 102   0.0000      -0.176110        -4.7922 
 103   0.0000      -0.169131        -4.6023 
 104   0.0000      -0.167932        -4.5697 
 105   0.0000      -0.146513        -3.9868 
 106   0.0000      -0.130378        -3.5478 
 107   0.0000      -0.111902        -3.0450 
 108   0.0000      -0.104109        -2.8330 
 109   0.0000      -0.102193        -2.7808 
 110   0.0000      -0.078153        -2.1266 
 111   0.0000      -0.073948        -2.0122 
 112   0.0000      -0.071679        -1.9505 
 113   0.0000      -0.070723        -1.9245 
 114   0.0000      -0.069656        -1.8954 
 115   0.0000      -0.057689        -1.5698 
 116   0.0000      -0.048787        -1.3276 
 117   0.0000      -0.041903        -1.1402 
 118   0.0000      -0.037195        -1.0121 
 119   0.0000      -0.034444        -0.9373 
 120   0.0000      -0.029761        -0.8098 
 121   0.0000      -0.027795        -0.7563 
 122   0.0000      -0.025483        -0.6934 
 123   0.0000      -0.024005        -0.6532 
 124   0.0000      -0.018142        -0.4937 
 125   0.0000      -0.012356        -0.3362 
 126   0.0000      -0.010955        -0.2981 
 127   0.0000      -0.004687        -0.1275 
 128   0.0000      -0.003560        -0.0969 
 129   0.0000      -0.001281        -0.0348 
 130   0.0000       0.001738         0.0473 
 131   0.0000       0.008688         0.2364 
 132   0.0000       0.009234         0.2513 
 133   0.0000       0.012538         0.3412 
 134   0.0000       0.019155         0.5212 
 135   0.0000       0.024633         0.6703 
 136   0.0000       0.030808         0.8383 
 137   0.0000       0.032978         0.8974 
 138   0.0000       0.040024         1.0891 
 139   0.0000       0.040788         1.1099 
 140   0.0000       0.048797         1.3278 
 141   0.0000       0.051139         1.3916 
 142   0.0000       0.053798         1.4639 
 143   0.0000       0.058343         1.5876 
 144   0.0000       0.060578         1.6484 
 145   0.0000       0.064858         1.7649 
 146   0.0000       0.068185         1.8554 
 147   0.0000       0.072988         1.9861 
 148   0.0000       0.081668         2.2223 
 149   0.0000       0.083356         2.2682 
 150   0.0000       0.088794         2.4162 
 151   0.0000       0.092441         2.5154 
 152   0.0000       0.096100         2.6150 
 153   0.0000       0.098414         2.6780 
 154   0.0000       0.103274         2.8102 
 155   0.0000       0.105330         2.8662 
 156   0.0000       0.107519         2.9257 
 157   0.0000       0.109683         2.9846 
 158   0.0000       0.114165         3.1066 
 159   0.0000       0.120543         3.2801 
 160   0.0000       0.121999         3.3198 
 161   0.0000       0.124651         3.3919 
 162   0.0000       0.128042         3.4842 
 163   0.0000       0.129919         3.5353 
 164   0.0000       0.132554         3.6070 
 165   0.0000       0.141706         3.8560 
 166   0.0000       0.145342         3.9550 
 167   0.0000       0.146508         3.9867 
 168   0.0000       0.151498         4.1225 
 169   0.0000       0.155511         4.2317 
 170   0.0000       0.159305         4.3349 
 171   0.0000       0.163576         4.4511 
 172   0.0000       0.168848         4.5946 
 173   0.0000       0.169711         4.6181 
 174   0.0000       0.177850         4.8395 
 175   0.0000       0.178121         4.8469 
 176   0.0000       0.182185         4.9575 
 177   0.0000       0.184173         5.0116 
 178   0.0000       0.190206         5.1758 
 179   0.0000       0.193626         5.2688 
 180   0.0000       0.197345         5.3700 
 181   0.0000       0.204455         5.5635 
 182   0.0000       0.206012         5.6059 
 183   0.0000       0.209632         5.7044 
 184   0.0000       0.215437         5.8623 
 185   0.0000       0.219407         5.9704 
 186   0.0000       0.222948         6.0667 
 187   0.0000       0.224137         6.0991 
 188   0.0000       0.228697         6.2232 
 189   0.0000       0.235612         6.4113 
 190   0.0000       0.238360         6.4861 
 191   0.0000       0.239991         6.5305 
 192   0.0000       0.245293         6.6748 
 193   0.0000       0.249925         6.8008 
 194   0.0000       0.254227         6.9179 
 195   0.0000       0.258929         7.0458 
 196   0.0000       0.260250         7.0818 
 197   0.0000       0.264943         7.2095 
 198   0.0000       0.270595         7.3633 
 199   0.0000       0.272356         7.4112 
 200   0.0000       0.277797         7.5593 
 201   0.0000       0.279499         7.6056 
 202   0.0000       0.283129         7.7043 
 203   0.0000       0.284882         7.7520 
 204   0.0000       0.287187         7.8148 
 205   0.0000       0.292990         7.9727 
 206   0.0000       0.296366         8.0645 
 207   0.0000       0.301079         8.1928 
 208   0.0000       0.303183         8.2500 
 209   0.0000       0.305239         8.3060 
 210   0.0000       0.309495         8.4218 
 211   0.0000       0.312067         8.4918 
 212   0.0000       0.315669         8.5898 
 213   0.0000       0.319601         8.6968 
 214   0.0000       0.319817         8.7027 
 215   0.0000       0.327655         8.9159 
 216   0.0000       0.330001         8.9798 
 217   0.0000       0.332271         9.0415 
 218   0.0000       0.338544         9.2122 
 219   0.0000       0.341361         9.2889 
 220   0.0000       0.343535         9.3481 
 221   0.0000       0.345896         9.4123 
 222   0.0000       0.350548         9.5389 
 223   0.0000       0.353630         9.6228 
 224   0.0000       0.355026         9.6607 
 225   0.0000       0.357118         9.7177 
 226   0.0000       0.359514         9.7829 
 227   0.0000       0.362355         9.8602 
 228   0.0000       0.371575        10.1111 
 229   0.0000       0.374910        10.2018 
 230   0.0000       0.380608        10.3569 
 231   0.0000       0.382874        10.4185 
 232   0.0000       0.383421        10.4334 
 233   0.0000       0.395149        10.7526 
 234   0.0000       0.397602        10.8193 
 235   0.0000       0.401855        10.9350 
 236   0.0000       0.404075        10.9954 
 237   0.0000       0.412291        11.2190 
 238   0.0000       0.415088        11.2951 
 239   0.0000       0.419427        11.4132 
 240   0.0000       0.423716        11.5299 
 241   0.0000       0.433017        11.7830 
 242   0.0000       0.440134        11.9767 
 243   0.0000       0.442747        12.0478 
 244   0.0000       0.443932        12.0800 
 245   0.0000       0.450952        12.2710 
 246   0.0000       0.453329        12.3357 
 247   0.0000       0.463158        12.6032 
 248   0.0000       0.466670        12.6987 
 249   0.0000       0.471793        12.8381 
 250   0.0000       0.477504        12.9936 
 251   0.0000       0.479325        13.0431 
 252   0.0000       0.486655        13.2425 
 253   0.0000       0.497365        13.5340 
 254   0.0000       0.501129        13.6364 
 255   0.0000       0.504631        13.7317 
 256   0.0000       0.506359        13.7787 
 257   0.0000       0.511447        13.9172 
 258   0.0000       0.512914        13.9571 
 259   0.0000       0.521901        14.2016 
 260   0.0000       0.523912        14.2564 
 261   0.0000       0.527815        14.3626 
 262   0.0000       0.533019        14.5042 
 263   0.0000       0.538566        14.6551 
 264   0.0000       0.543190        14.7809 
 265   0.0000       0.544055        14.8045 
 266   0.0000       0.551977        15.0201 
 267   0.0000       0.552727        15.0405 
 268   0.0000       0.557118        15.1600 
 269   0.0000       0.570064        15.5122 
 270   0.0000       0.577042        15.7021 
 271   0.0000       0.584804        15.9133 
 272   0.0000       0.589924        16.0526 
 273   0.0000       0.592314        16.1177 
 274   0.0000       0.600315        16.3354 
 275   0.0000       0.608370        16.5546 
 276   0.0000       0.612630        16.6705 
 277   0.0000       0.616658        16.7801 
 278   0.0000       0.620368        16.8811 
 279   0.0000       0.624647        16.9975 
 280   0.0000       0.626799        17.0561 
 281   0.0000       0.631080        17.1726 
 282   0.0000       0.637435        17.3455 
 283   0.0000       0.641239        17.4490 
 284   0.0000       0.652135        17.7455 
 285   0.0000       0.656066        17.8525 
 286   0.0000       0.661287        17.9945 
 287   0.0000       0.666666        18.1409 
 288   0.0000       0.674314        18.3490 
 289   0.0000       0.678644        18.4669 
 290   0.0000       0.681032        18.5318 
 291   0.0000       0.689205        18.7542 
 292   0.0000       0.691693        18.8219 
 293   0.0000       0.701846        19.0982 
 294   0.0000       0.705693        19.2029 
 295   0.0000       0.713346        19.4111 
 296   0.0000       0.720469        19.6050 
 297   0.0000       0.726794        19.7771 
 298   0.0000       0.729285        19.8448 
 299   0.0000       0.738065        20.0838 
 300   0.0000       0.748707        20.3734 
 301   0.0000       0.754782        20.5387 
 302   0.0000       0.762244        20.7417 
 303   0.0000       0.766939        20.8695 
 304   0.0000       0.770962        20.9790 
 305   0.0000       0.777084        21.1455 
 306   0.0000       0.779314        21.2062 
 307   0.0000       0.783898        21.3310 
 308   0.0000       0.793903        21.6032 
 309   0.0000       0.802186        21.8286 
 310   0.0000       0.802696        21.8425 
 311   0.0000       0.808266        21.9940 
 312   0.0000       0.821052        22.3420 
 313   0.0000       0.823679        22.4135 
 314   0.0000       0.828742        22.5512 
 315   0.0000       0.842353        22.9216 
 316   0.0000       0.846474        23.0337 
 317   0.0000       0.854023        23.2391 
 318   0.0000       0.856521        23.3071 
 319   0.0000       0.861635        23.4463 
 320   0.0000       0.872689        23.7471 
 321   0.0000       0.881925        23.9984 
 322   0.0000       0.889405        24.2019 
 323   0.0000       0.895408        24.3653 
 324   0.0000       0.896666        24.3995 
 325   0.0000       0.902411        24.5559 
 326   0.0000       0.910578        24.7781 
 327   0.0000       0.918132        24.9836 
 328   0.0000       0.925207        25.1761 
 329   0.0000       0.930209        25.3123 
 330   0.0000       0.936428        25.4815 
 331   0.0000       0.938489        25.5376 
 332   0.0000       0.945478        25.7278 
 333   0.0000       0.950352        25.8604 
 334   0.0000       0.961818        26.1724 
 335   0.0000       0.968532        26.3551 
 336   0.0000       0.975401        26.5420 
 337   0.0000       0.981508        26.7082 
 338   0.0000       0.984952        26.8019 
 339   0.0000       0.993268        27.0282 
 340   0.0000       1.003225        27.2991 
 341   0.0000       1.011070        27.5126 
 342   0.0000       1.017360        27.6838 
 343   0.0000       1.023402        27.8482 
 344   0.0000       1.028605        27.9898 
 345   0.0000       1.030509        28.0416 
 346   0.0000       1.038865        28.2689 
 347   0.0000       1.048985        28.5443 
 348   0.0000       1.055232        28.7143 
 349   0.0000       1.059774        28.8379 
 350   0.0000       1.065198        28.9855 
 351   0.0000       1.071416        29.1547 
 352   0.0000       1.074557        29.2402 
 353   0.0000       1.081275        29.4230 
 354   0.0000       1.083652        29.4877 
 355   0.0000       1.088602        29.6224 
 356   0.0000       1.090730        29.6803 
 357   0.0000       1.095881        29.8204 
 358   0.0000       1.105347        30.0780 
 359   0.0000       1.108733        30.1702 
 360   0.0000       1.112707        30.2783 
 361   0.0000       1.122938        30.5567 
 362   0.0000       1.127133        30.6709 
 363   0.0000       1.131855        30.7993 
 364   0.0000       1.141615        31.0649 
 365   0.0000       1.145658        31.1749 
 366   0.0000       1.150051        31.2945 
 367   0.0000       1.165004        31.7014 
 368   0.0000       1.178897        32.0794 
 369   0.0000       1.194484        32.5036 
 370   0.0000       1.208633        32.8886 
 371   0.0000       1.219170        33.1753 
 372   0.0000       1.227101        33.3911 
 373   0.0000       1.233344        33.5610 
 374   0.0000       1.240909        33.7668 
 375   0.0000       1.245248        33.8849 
 376   0.0000       1.251744        34.0617 
 377   0.0000       1.259451        34.2714 
 378   0.0000       1.263492        34.3814 
 379   0.0000       1.276119        34.7250 
 380   0.0000       1.286423        35.0053 
 381   0.0000       1.291230        35.1361 
 382   0.0000       1.292802        35.1789 
 383   0.0000       1.300321        35.3835 
 384   0.0000       1.304576        35.4993 
 385   0.0000       1.315522        35.7972 
 386   0.0000       1.317062        35.8391 
 387   0.0000       1.318522        35.8788 
 388   0.0000       1.331260        36.2254 
 389   0.0000       1.341448        36.5026 
 390   0.0000       1.346142        36.6304 
 391   0.0000       1.350203        36.7409 
 392   0.0000       1.354010        36.8445 
 393   0.0000       1.358911        36.9779 
 394   0.0000       1.369156        37.2566 
 395   0.0000       1.372277        37.3415 
 396   0.0000       1.374702        37.4075 
 397   0.0000       1.382960        37.6322 
 398   0.0000       1.387628        37.7593 
 399   0.0000       1.394536        37.9472 
 400   0.0000       1.396281        37.9947 
 401   0.0000       1.402335        38.1595 
 402   0.0000       1.405989        38.2589 
 403   0.0000       1.417078        38.5607 
 404   0.0000       1.419678        38.6314 
 405   0.0000       1.428026        38.8586 
 406   0.0000       1.431984        38.9663 
 407   0.0000       1.436625        39.0925 
 408   0.0000       1.442039        39.2399 
 409   0.0000       1.445707        39.3397 
 410   0.0000       1.447304        39.3831 
 411   0.0000       1.452120        39.5142 
 412   0.0000       1.459204        39.7070 
 413   0.0000       1.466242        39.8985 
 414   0.0000       1.466976        39.9184 
 415   0.0000       1.477720        40.2108 
 416   0.0000       1.479427        40.2573 
 417   0.0000       1.486211        40.4419 
 418   0.0000       1.489622        40.5347 
 419   0.0000       1.501810        40.8663 
 420   0.0000       1.507163        41.0120 
 421   0.0000       1.512709        41.1629 
 422   0.0000       1.517653        41.2974 
 423   0.0000       1.517781        41.3009 
 424   0.0000       1.519988        41.3610 
 425   0.0000       1.526308        41.5329 
 426   0.0000       1.532857        41.7112 
 427   0.0000       1.537817        41.8461 
 428   0.0000       1.542254        41.9669 
 429   0.0000       1.545777        42.0627 
 430   0.0000       1.551249        42.2116 
 431   0.0000       1.554511        42.3004 
 432   0.0000       1.562538        42.5188 
 433   0.0000       1.564665        42.5767 
 434   0.0000       1.579069        42.9686 
 435   0.0000       1.581135        43.0249 
 436   0.0000       1.584958        43.1289 
 437   0.0000       1.597600        43.4729 
 438   0.0000       1.606655        43.7193 
 439   0.0000       1.610384        43.8208 
 440   0.0000       1.610773        43.8314 
 441   0.0000       1.620274        44.0899 
 442   0.0000       1.630655        44.3724 
 443   0.0000       1.632632        44.4262 
 444   0.0000       1.638106        44.5751 
 445   0.0000       1.647313        44.8257 
 446   0.0000       1.660230        45.1772 
 447   0.0000       1.667150        45.3655 
 448   0.0000       1.670743        45.4632 
 449   0.0000       1.680364        45.7250 
 450   0.0000       1.687807        45.9276 
 451   0.0000       1.690883        46.0113 
 452   0.0000       1.694965        46.1223 
 453   0.0000       1.700168        46.2639 
 454   0.0000       1.708729        46.4969 
 455   0.0000       1.724027        46.9132 
 456   0.0000       1.728418        47.0327 
 457   0.0000       1.732123        47.1335 
 458   0.0000       1.748123        47.5688 
 459   0.0000       1.759008        47.8650 
 460   0.0000       1.762456        47.9589 
 461   0.0000       1.766955        48.0813 
 462   0.0000       1.787792        48.6483 
 463   0.0000       1.792556        48.7779 
 464   0.0000       1.804316        49.0979 
 465   0.0000       1.813301        49.3424 
 466   0.0000       1.825715        49.6802 
 467   0.0000       1.830557        49.8120 
 468   0.0000       1.835244        49.9395 
 469   0.0000       1.839231        50.0480 
 470   0.0000       1.852834        50.4182 
 471   0.0000       1.853645        50.4403 
 472   0.0000       1.866323        50.7852 
 473   0.0000       1.871071        50.9144 
 474   0.0000       1.880886        51.1815 
 475   0.0000       1.892544        51.4987 
 476   0.0000       1.901002        51.7289 
 477   0.0000       1.907400        51.9030 
 478   0.0000       1.915120        52.1131 
 479   0.0000       1.923507        52.3413 
 480   0.0000       1.926915        52.4340 
 481   0.0000       1.932374        52.5826 
 482   0.0000       1.937446        52.7206 
 483   0.0000       1.947940        53.0061 
 484   0.0000       1.953293        53.1518 
 485   0.0000       1.956900        53.2500 
 486   0.0000       1.957949        53.2785 
 487   0.0000       1.966313        53.5061 
 488   0.0000       1.968634        53.5692 
 489   0.0000       1.973901        53.7126 
 490   0.0000       1.986370        54.0519 
 491   0.0000       1.997469        54.3539 
 492   0.0000       2.001296        54.4580 
 493   0.0000       2.007493        54.6267 
 494   0.0000       2.018501        54.9262 
 495   0.0000       2.028342        55.1940 
 496   0.0000       2.040865        55.5348 
 497   0.0000       2.041300        55.5466 
 498   0.0000       2.052165        55.8422 
 499   0.0000       2.061226        56.0888 
 500   0.0000       2.068477        56.2861 
 501   0.0000       2.074564        56.4517 
 502   0.0000       2.078461        56.5578 
 503   0.0000       2.085761        56.7564 
 504   0.0000       2.095950        57.0337 
 505   0.0000       2.106675        57.3255 
 506   0.0000       2.111840        57.4661 
 507   0.0000       2.120807        57.7101 
 508   0.0000       2.132207        58.0203 
 509   0.0000       2.136013        58.1239 
 510   0.0000       2.144968        58.3675 
 511   0.0000       2.155306        58.6489 
 512   0.0000       2.166339        58.9491 
 513   0.0000       2.173206        59.1359 
 514   0.0000       2.185809        59.4789 
 515   0.0000       2.193626        59.6916 
 516   0.0000       2.197002        59.7835 
 517   0.0000       2.214199        60.2514 
 518   0.0000       2.233701        60.7821 
 519   0.0000       2.245883        61.1136 
 520   0.0000       2.250567        61.2410 
 521   0.0000       2.254005        61.3346 
 522   0.0000       2.260390        61.5083 
 523   0.0000       2.267491        61.7016 
 524   0.0000       2.270882        61.7938 
 525   0.0000       2.280550        62.0569 
 526   0.0000       2.286223        62.2113 
 527   0.0000       2.297069        62.5064 
 528   0.0000       2.302666        62.6587 
 529   0.0000       2.309070        62.8330 
 530   0.0000       2.313079        62.9421 
 531   0.0000       2.326099        63.2964 
 532   0.0000       2.336620        63.5827 
 533   0.0000       2.350831        63.9694 
 534   0.0000       2.360259        64.2259 
 535   0.0000       2.361708        64.2653 
 536   0.0000       2.368625        64.4536 
 537   0.0000       2.374281        64.6075 
 538   0.0000       2.375781        64.6483 
 539   0.0000       2.382480        64.8306 
 540   0.0000       2.395109        65.1742 
 541   0.0000       2.398225        65.2590 
 542   0.0000       2.404144        65.4201 
 543   0.0000       2.413828        65.6836 
 544   0.0000       2.417830        65.7925 
 545   0.0000       2.418844        65.8201 
 546   0.0000       2.425728        66.0074 
 547   0.0000       2.429580        66.1122 
 548   0.0000       2.437583        66.3300 
 549   0.0000       2.442608        66.4667 
 550   0.0000       2.446666        66.5772 
 551   0.0000       2.450267        66.6752 
 552   0.0000       2.456089        66.8336 
 553   0.0000       2.460008        66.9402 
 554   0.0000       2.467632        67.1477 
 555   0.0000       2.471168        67.2439 
 556   0.0000       2.474505        67.3347 
 557   0.0000       2.479056        67.4586 
 558   0.0000       2.480939        67.5098 
 559   0.0000       2.490133        67.7600 
 560   0.0000       2.499377        68.0115 
 561   0.0000       2.502972        68.1093 
 562   0.0000       2.506838        68.2145 
 563   0.0000       2.509797        68.2951 
 564   0.0000       2.513466        68.3949 
 565   0.0000       2.523963        68.6805 
 566   0.0000       2.527514        68.7772 
 567   0.0000       2.530271        68.8522 
 568   0.0000       2.533162        68.9308 
 569   0.0000       2.540481        69.1300 
 570   0.0000       2.548311        69.3431 
 571   0.0000       2.556534        69.5668 
 572   0.0000       2.565107        69.8001 
 573   0.0000       2.568386        69.8893 
 574   0.0000       2.570559        69.9485 
 575   0.0000       2.573302        70.0231 
 576   0.0000       2.588163        70.4275 
 577   0.0000       2.593450        70.5714 
 578   0.0000       2.600614        70.7663 
 579   0.0000       2.604980        70.8851 
 580   0.0000       2.609622        71.0114 
 581   0.0000       2.618518        71.2535 
 582   0.0000       2.628277        71.5190 
 583   0.0000       2.632712        71.6397 
 584   0.0000       2.641439        71.8772 
 585   0.0000       2.642489        71.9058 
 586   0.0000       2.650346        72.1196 
 587   0.0000       2.655621        72.2631 
 588   0.0000       2.657121        72.3039 
 589   0.0000       2.662690        72.4555 
 590   0.0000       2.673501        72.7497 
 591   0.0000       2.676990        72.8446 
 592   0.0000       2.684507        73.0492 
 593   0.0000       2.689201        73.1769 
 594   0.0000       2.693740        73.3004 
 595   0.0000       2.699723        73.4632 
 596   0.0000       2.707545        73.6761 
 597   0.0000       2.710298        73.7509 
 598   0.0000       2.718206        73.9661 
 599   0.0000       2.722414        74.0807 
 600   0.0000       2.731945        74.3400 
 601   0.0000       2.742230        74.6199 
 602   0.0000       2.745825        74.7177 
 603   0.0000       2.746294        74.7305 
 604   0.0000       2.754328        74.9491 
 605   0.0000       2.759514        75.0902 
 606   0.0000       2.765888        75.2637 
 607   0.0000       2.770253        75.3824 
 608   0.0000       2.773902        75.4817 
 609   0.0000       2.780347        75.6571 
 610   0.0000       2.785817        75.8059 
 611   0.0000       2.792418        75.9856 
 612   0.0000       2.800485        76.2051 
 613   0.0000       2.807391        76.3930 
 614   0.0000       2.815549        76.6150 
 615   0.0000       2.819429        76.7206 
 616   0.0000       2.825126        76.8756 
 617   0.0000       2.838176        77.2307 
 618   0.0000       2.854019        77.6618 
 619   0.0000       2.854527        77.6756 
 620   0.0000       2.859292        77.8053 
 621   0.0000       2.875297        78.2408 
 622   0.0000       2.879383        78.3520 
 623   0.0000       2.890150        78.6450 
 624   0.0000       2.891454        78.6805 
 625   0.0000       2.898304        78.8668 
 626   0.0000       2.904419        79.0332 
 627   0.0000       2.907109        79.1065 
 628   0.0000       2.913143        79.2707 
 629   0.0000       2.920464        79.4699 
 630   0.0000       2.922614        79.5284 
 631   0.0000       2.927408        79.6588 
 632   0.0000       2.930867        79.7529 
 633   0.0000       2.935997        79.8925 
 634   0.0000       2.939134        79.9779 
 635   0.0000       2.948424        80.2307 
 636   0.0000       2.950568        80.2890 
 637   0.0000       2.954007        80.3826 
 638   0.0000       2.957142        80.4679 
 639   0.0000       2.964116        80.6577 
 640   0.0000       2.969057        80.7922 
 641   0.0000       2.973651        80.9172 
 642   0.0000       2.976470        80.9939 
 643   0.0000       2.981003        81.1172 
 644   0.0000       2.983605        81.1880 
 645   0.0000       2.993133        81.4473 
 646   0.0000       2.999504        81.6207 
 647   0.0000       3.006994        81.8245 
 648   0.0000       3.009260        81.8861 
 649   0.0000       3.013236        81.9943 
 650   0.0000       3.014701        82.0342 
 651   0.0000       3.033619        82.5490 
 652   0.0000       3.040258        82.7296 
 653   0.0000       3.041642        82.7673 
 654   0.0000       3.048329        82.9493 
 655   0.0000       3.062662        83.3393 
 656   0.0000       3.064945        83.4014 
 657   0.0000       3.069005        83.5119 
 658   0.0000       3.075591        83.6911 
 659   0.0000       3.076084        83.7045 
 660   0.0000       3.082993        83.8925 
 661   0.0000       3.089278        84.0635 
 662   0.0000       3.095049        84.2206 
 663   0.0000       3.098456        84.3133 
 664   0.0000       3.105085        84.4937 
 665   0.0000       3.107862        84.5692 
 666   0.0000       3.110994        84.6545 
 667   0.0000       3.124117        85.0116 
 668   0.0000       3.129236        85.1508 
 669   0.0000       3.130189        85.1768 
 670   0.0000       3.132051        85.2274 
 671   0.0000       3.140314        85.4523 
 672   0.0000       3.148545        85.6763 
 673   0.0000       3.155067        85.8537 
 674   0.0000       3.161076        86.0173 
 675   0.0000       3.164959        86.1229 
 676   0.0000       3.168088        86.2081 
 677   0.0000       3.177261        86.4577 
 678   0.0000       3.180941        86.5578 
 679   0.0000       3.182658        86.6045 
 680   0.0000       3.187294        86.7307 
 681   0.0000       3.193575        86.9016 
 682   0.0000       3.196706        86.9868 
 683   0.0000       3.200422        87.0879 
 684   0.0000       3.207498        87.2805 
 685   0.0000       3.215282        87.4923 
 686   0.0000       3.217857        87.5623 
 687   0.0000       3.220820        87.6430 
 688   0.0000       3.223454        87.7146 
 689   0.0000       3.226657        87.8018 
 690   0.0000       3.237056        88.0848 
 691   0.0000       3.242020        88.2199 
 692   0.0000       3.248005        88.3827 
 693   0.0000       3.249268        88.4171 
 694   0.0000       3.252410        88.5026 
 695   0.0000       3.258399        88.6655 
 696   0.0000       3.266360        88.8822 
 697   0.0000       3.272645        89.0532 
 698   0.0000       3.277554        89.1868 
 699   0.0000       3.292113        89.5830 
 700   0.0000       3.296371        89.6988 
 701   0.0000       3.302344        89.8614 
 702   0.0000       3.306755        89.9814 
 703   0.0000       3.308887        90.0394 
 704   0.0000       3.313632        90.1685 
 705   0.0000       3.317952        90.2861 
 706   0.0000       3.320637        90.3591 
 707   0.0000       3.324731        90.4705 
 708   0.0000       3.328085        90.5618 
 709   0.0000       3.336921        90.8022 
 710   0.0000       3.345230        91.0283 
 711   0.0000       3.358446        91.3880 
 712   0.0000       3.368275        91.6554 
 713   0.0000       3.371139        91.7334 
 714   0.0000       3.387219        92.1709 
 715   0.0000       3.391939        92.2994 
 716   0.0000       3.406772        92.7030 
 717   0.0000       3.419600        93.0520 
 718   0.0000       3.426893        93.2505 
 719   0.0000       3.440907        93.6318 
 720   0.0000       3.455253        94.0222 
 721   0.0000       3.460931        94.1767 
 722   0.0000       3.471180        94.4556 
 723   0.0000       3.483202        94.7828 
 724   0.0000       3.490425        94.9793 
 725   0.0000       3.495800        95.1255 
 726   0.0000       3.500470        95.2526 
 727   0.0000       3.509442        95.4968 
 728   0.0000       3.514581        95.6366 
 729   0.0000       3.524870        95.9166 
 730   0.0000       3.536176        96.2242 
 731   0.0000       3.542098        96.3854 
 732   0.0000       3.555346        96.7459 
 733   0.0000       3.565795        97.0302 
 734   0.0000       3.571576        97.1875 
 735   0.0000       3.614481        98.3550 
 736   0.0000       3.648692        99.2860 
 737   0.0000       3.658387        99.5498 
 738   0.0000       3.670890        99.8900 
 739   0.0000       3.680594       100.1541 
 740   0.0000       3.702418       100.7479 
 741   0.0000       3.715462       101.1029 
 742   0.0000       3.722083       101.2830 
 743   0.0000       3.729347       101.4807 
 744   0.0000       3.744337       101.8886 
 745   0.0000       3.750315       102.0513 
 746   0.0000       3.777843       102.8003 
 747   0.0000       3.782641       102.9309 
 748   0.0000       3.786102       103.0251 
 749   0.0000       3.805643       103.5568 
 750   0.0000       3.822492       104.0153 
 751   0.0000       3.841305       104.5272 
 752   0.0000       3.845535       104.6423 
 753   0.0000       3.857476       104.9673 
 754   0.0000       3.860487       105.0492 
 755   0.0000       3.889310       105.8335 
 756   0.0000       3.893772       105.9549 
 757   0.0000       3.900012       106.1247 
 758   0.0000       3.907863       106.3384 
 759   0.0000       3.918129       106.6177 
 760   0.0000       3.922223       106.7291 
 761   0.0000       3.940466       107.2255 
 762   0.0000       3.952488       107.5527 
 763   0.0000       3.957031       107.6763 
 764   0.0000       3.964495       107.8794 
 765   0.0000       3.978264       108.2541 
 766   0.0000       3.981050       108.3299 
 767   0.0000       3.984072       108.4121 
 768   0.0000       3.990725       108.5931 
 769   0.0000       3.996227       108.7429 
 770   0.0000       4.000379       108.8558 
 771   0.0000       4.002216       108.9058 
 772   0.0000       4.004955       108.9804 
 773   0.0000       4.010855       109.1409 
 774   0.0000       4.032766       109.7371 
 775   0.0000       4.038896       109.9040 
 776   0.0000       4.042155       109.9926 
 777   0.0000       4.050262       110.2132 
 778   0.0000       4.057091       110.3991 
 779   0.0000       4.069219       110.7291 
 780   0.0000       4.082980       111.1035 
 781   0.0000       4.086967       111.2120 
 782   0.0000       4.095235       111.4370 
 783   0.0000       4.107178       111.7620 
 784   0.0000       4.119821       112.1060 
 785   0.0000       4.131204       112.4158 
 786   0.0000       4.133829       112.4872 
 787   0.0000       4.136957       112.5723 
 788   0.0000       4.144100       112.7667 
 789   0.0000       4.166986       113.3895 
 790   0.0000       4.175618       113.6243 
 791   0.0000       4.185140       113.8835 
 792   0.0000       4.196890       114.2032 
 793   0.0000       4.249160       115.6255 
 794   0.0000       4.267856       116.1343 
[...]


-----------
IR SPECTRUM
-----------

 Mode    freq (cm**-1)   T**2         TX         TY         TZ
-------------------------------------------------------------------
   6:        22.03    0.253986  ( -0.376015  -0.272949  -0.195185)
   7:        31.81    0.206332  (  0.228968   0.387164  -0.063323)
   8:        47.77    0.431294  (  0.523083   0.131015   0.374851)
   9:        61.29    0.094865  (  0.149862  -0.267885   0.025384)
  10:        61.75    0.743148  ( -0.211694   0.135103  -0.824670)
  11:        66.77    0.291399  (  0.195908   0.104542  -0.492027)
  12:        78.62    0.544611  (  0.514979  -0.108434   0.517349)
  13:        95.64    0.437684  ( -0.634346  -0.135508   0.130101)
  14:       112.88    0.155027  ( -0.041103  -0.174630   0.350488)
  15:       126.64    0.271535  ( -0.010886  -0.223523  -0.470589)
  16:       134.69    0.765276  ( -0.459949   0.428986   0.608024)
  17:       159.50    1.042583  ( -0.770470   0.093549   0.663482)
  18:       169.97    1.201104  (  0.535660  -0.955529  -0.033712)
  19:       178.19    4.791328  (  0.234886  -1.283120   1.757771)
  20:       186.17    2.097258  ( -0.183129   1.362504   0.455307)
  21:       206.56    0.687411  (  0.134790   0.516952   0.634037)
  22:       210.19    0.623633  ( -0.643910   0.072576  -0.451383)
  23:       216.22    0.377651  ( -0.507034  -0.151921   0.312230)
  24:       243.65    2.405186  ( -0.569245  -0.551059  -1.333222)
  25:       261.67    1.337293  (  0.423728  -0.987517  -0.427268)
  26:       286.61    0.365218  ( -0.387676  -0.088409  -0.455093)
  27:       303.58   13.185160  ( -3.515716  -0.829906   0.368989)
  28:       309.26    1.992090  ( -0.460880   0.220577  -1.315684)
  29:       346.14    4.586576  ( -0.870364  -1.903638  -0.452994)
  30:       372.98    0.488409  ( -0.268541  -0.101909  -0.637110)
  31:       377.31    4.766703  (  0.211556  -0.547863   2.102806)
  32:       387.48    5.256570  (  0.458311   1.655579  -1.518414)
  33:       396.10    0.984491  (  0.718513   0.654548   0.199493)
  34:       421.44    7.858207  (  2.470595   1.173898   0.613459)
  35:       444.50    7.543158  (  1.902674   1.635664   1.116957)
  36:       453.18    8.154480  ( -0.399331   0.167674   2.822570)
  37:       488.46    2.646303  ( -1.377009   0.863031   0.072992)
  38:       508.44    2.845467  (  1.280314   0.006035   1.098283)
  39:       529.28    0.989310  (  0.143699   0.855731   0.486194)
  40:       574.98    4.712538  ( -1.625877  -0.099248  -1.434995)
  41:       576.11    4.199122  (  0.368440  -1.559964   1.276670)
  42:       594.81    6.037815  ( -1.545579   1.443916   1.250643)
  43:       606.57    2.411691  ( -1.485845  -0.410298   0.188713)
  44:       607.93    0.084131  ( -0.280639  -0.072698   0.009392)
  45:       621.75   17.006775  ( -3.235464  -2.437199   0.773700)
  46:       669.40    5.763362  ( -1.240787   0.544874  -1.981646)
  47:       680.67    1.788983  ( -0.663296  -0.189901  -1.145844)
  48:       685.83   18.294440  ( -2.778077   0.312089   3.237179)
  49:       691.49    9.957798  (  2.586378   1.545386   0.938204)
  50:       717.10   14.688568  ( -0.039325   0.834300  -3.740450)
  51:       733.73   40.006490  (  4.544666   0.203042  -4.394459)
  52:       743.93    1.794412  (  0.424273   1.170197  -0.495020)
  53:       746.41   91.359559  (  4.479029  -3.297852   7.773161)
  54:       777.42    7.233640  ( -2.264415  -0.231094   1.432710)
  55:       807.23    0.562454  (  0.682935   0.199894   0.236846)
  56:       822.44    0.599670  (  0.709547   0.179784  -0.252766)
  57:       822.88    0.925452  ( -0.733299   0.383057  -0.490909)
  58:       840.60    0.246497  ( -0.352069   0.316289  -0.150017)
  59:       877.59    0.053163  ( -0.023396   0.024748   0.228041)
  60:       882.39    6.860558  (  1.229372   2.231645   0.607424)
  61:       894.28   24.157593  (  2.043544  -3.134572  -3.186845)
  62:       900.18    1.044489  (  0.803563  -0.321271  -0.543655)
  63:       911.79    8.190510  (  2.217548  -1.195808   1.357584)
  64:       927.20    0.813402  ( -0.083574   0.140898   0.886885)
  65:       943.13    9.186408  ( -0.288972   2.065070   2.199634)
  66:       949.52    0.438020  ( -0.470481  -0.462987   0.048071)
  67:       961.66    0.025105  ( -0.010235   0.113004   0.110588)
  68:       976.58    0.092402  (  0.080875   0.262627   0.129956)
  69:       978.81   35.102860  ( -0.802276  -5.766106  -1.100564)
  70:       981.21   65.074676  ( -7.524995   0.230827   2.897558)
  71:       991.75    9.610263  (  2.072663   2.012360   1.124605)
  72:      1013.25    0.530259  ( -0.372577   0.569485   0.259098)
  73:      1019.75    3.612469  (  1.408384   1.085283   0.671629)
  74:      1032.80    2.625735  ( -1.017134   0.703219   1.047213)
  75:      1041.73    3.077800  (  1.084911  -0.761097  -1.149565)
  76:      1047.98  108.722386  ( -9.383443  -0.488850   4.520444)
  77:      1061.68    0.197270  ( -0.132867   0.258486  -0.335860)
  78:      1078.14    5.466365  (  0.853950  -2.060412   0.701313)
  79:      1085.82    5.132184  (  2.071943   0.545870  -0.735705)
  80:      1124.17    1.128578  ( -0.951205   0.300529  -0.365335)
  81:      1125.40    3.408331  ( -1.559074  -0.988352   0.027919)
  82:      1159.66    0.041447  (  0.100429   0.047058   0.170724)
  83:      1160.56    0.216608  ( -0.072933   0.459013   0.024409)
  84:      1171.33    2.251896  ( -1.179086  -0.822845   0.429626)
  85:      1175.57   24.214459  (  0.878851  -3.967642  -2.774868)
  86:      1202.37    9.088629  ( -2.513973  -1.035100   1.302742)
  87:      1202.79    7.506422  ( -2.382784  -1.179209   0.661987)
  88:      1249.30   44.539613  (  5.867131   2.753443  -1.592149)
  89:      1264.35   40.037241  ( -5.902993  -0.342978   2.252615)
  90:      1273.77  137.871999  (  8.799186  -3.836749  -6.762077)
  91:      1299.08    1.610849  ( -0.537770   0.959780  -0.632831)
  92:      1314.36    9.419177  ( -1.446149  -2.502786  -1.031451)
  93:      1317.94    3.663382  ( -1.813560  -0.471100   0.390446)
  94:      1333.08    5.748445  (  1.247849  -1.884883  -0.799084)
  95:      1338.31    1.768154  ( -0.741456   0.363998   1.042067)
  96:      1376.45   14.186433  (  2.989158  -1.309278  -1.880734)
  97:      1385.41   77.028448  (  3.992999  -5.684913  -5.363410)
  98:      1389.80    5.113893  (  1.251281   1.682633  -0.846720)
  99:      1423.38   53.807478  ( -6.624602  -2.995132   0.975354)
 100:      1431.09   12.376472  (  1.234029  -1.011679   3.135307)
 101:      1433.78   15.394991  (  2.584596   2.384881  -1.739884)
 102:      1437.73    5.177227  (  1.492917  -1.707655   0.179841)
 103:      1456.48   54.453882  ( -6.402678   1.414201   3.385207)
 104:      1463.35   21.827619  (  3.785545   2.035925   1.830922)
 105:      1477.23  150.606606  ( 10.534145  -1.713908  -6.058127)
 106:      1558.55   49.191240  (  6.275546   0.994658  -2.969751)
 107:      1567.88  130.529432  (-10.302804   1.625916   4.662410)
 108:      1572.36    8.475360  (  0.990715  -2.063286  -1.799082)
 109:      1576.13   20.388256  ( -3.558448  -1.021283   2.585089)
 110:      1579.78   11.600024  (  2.190672  -2.565720  -0.466969)
 111:      1591.51  212.854950  ( 13.251637   0.912189  -6.034648)
 112:      2955.72    1.784260  ( -0.293372   0.500395  -1.203244)
 113:      3050.65    0.731155  ( -0.073354  -0.827707  -0.201680)
 114:      3054.21    4.078129  (  0.837630  -1.542246  -0.998990)
 115:      3062.93    2.941034  (  0.973308   1.321112  -0.498366)
 116:      3065.59    2.418150  (  1.233135   0.767339  -0.555625)
 117:      3097.20    1.607192  ( -0.369211  -1.002859  -0.682018)
 118:      3102.38    0.594991  ( -0.638607   0.148444  -0.406370)
 119:      3113.89    0.139658  ( -0.363950   0.043175   0.073032)
 120:      3115.79    1.041520  (  0.923305  -0.133396  -0.413803)
 121:      3120.63    0.556699  ( -0.629347   0.173838   0.361112)
 122:      3121.99    1.923069  ( -0.717896   1.079829  -0.491593)
 123:      3129.85    1.472924  (  0.784531   0.919530  -0.109084)
 124:      3130.69    1.376882  (  0.568798   1.023707   0.073309)
 125:      3130.92    0.242693  (  0.343658  -0.178066  -0.304769)
 126:      3136.04    2.126120  (  1.205126   0.497688   0.652762)
 127:      3139.17    0.928078  ( -0.144752   0.756776   0.578287)
 128:      3150.54    0.843853  ( -0.255231   0.798435   0.375781)
 129:      3158.73    0.197655  (  0.209248  -0.310724  -0.239418)
 130:      3171.93    0.031338  (  0.054938  -0.128100  -0.109136)
 131:      3188.15    0.309478  ( -0.393314  -0.389373   0.056310)

The first frequency considered to be a vibration is 6
The total number of vibrations considered is 126


--------------------------
THERMOCHEMISTRY AT 298.15K
--------------------------

Temperature         ... 298.15 K
Pressure            ... 1.00 atm
Total Mass          ... 372.45 AMU

Throughout the following assumptions are being made:
  (1) The electronic state is orbitally nondegenerate
      but the spin degeneracy is treated
  (2) There are no thermally accessible electronically excited states
  (3) Hindered rotations indicated by low frequency modes are not
      treated as such but are treated as vibrations and this may
      cause some error
  (4) All equations used are the standard statistical mechanics
      equations for an ideal gas
  (5) All vibrations are strictly harmonic

freq.      22.03  E(vib)   ...       0.56 
freq.      31.81  E(vib)   ...       0.55 
freq.      47.77  E(vib)   ...       0.53 
freq.      61.29  E(vib)   ...       0.51 
freq.      61.75  E(vib)   ...       0.51 
freq.      66.77  E(vib)   ...       0.50 
freq.      78.62  E(vib)   ...       0.49 
freq.      95.64  E(vib)   ...       0.47 
freq.     112.88  E(vib)   ...       0.45 
freq.     126.64  E(vib)   ...       0.43 
freq.     134.69  E(vib)   ...       0.42 
freq.     159.50  E(vib)   ...       0.39 
freq.     169.97  E(vib)   ...       0.38 
freq.     178.19  E(vib)   ...       0.37 
freq.     186.17  E(vib)   ...       0.37 
freq.     206.56  E(vib)   ...       0.35 
freq.     210.19  E(vib)   ...       0.34 
freq.     216.22  E(vib)   ...       0.34 
freq.     243.65  E(vib)   ...       0.31 
freq.     261.67  E(vib)   ...       0.30 
freq.     286.61  E(vib)   ...       0.27 
freq.     303.58  E(vib)   ...       0.26 
freq.     309.26  E(vib)   ...       0.26 
freq.     346.14  E(vib)   ...       0.23 
freq.     372.98  E(vib)   ...       0.21 
freq.     377.31  E(vib)   ...       0.21 
freq.     387.48  E(vib)   ...       0.20 
freq.     396.10  E(vib)   ...       0.20 
freq.     421.44  E(vib)   ...       0.18 
freq.     444.50  E(vib)   ...       0.17 
freq.     453.18  E(vib)   ...       0.16 
freq.     488.46  E(vib)   ...       0.15 
freq.     508.44  E(vib)   ...       0.14 
freq.     529.28  E(vib)   ...       0.13 
freq.     574.98  E(vib)   ...       0.11 
freq.     576.11  E(vib)   ...       0.11 
freq.     594.81  E(vib)   ...       0.10 
freq.     606.57  E(vib)   ...       0.10 
freq.     607.93  E(vib)   ...       0.10 
freq.     621.75  E(vib)   ...       0.09 
freq.     669.40  E(vib)   ...       0.08 
freq.     680.67  E(vib)   ...       0.08 
freq.     685.83  E(vib)   ...       0.07 
freq.     691.49  E(vib)   ...       0.07 
freq.     717.10  E(vib)   ...       0.07 
freq.     733.73  E(vib)   ...       0.06 
freq.     743.93  E(vib)   ...       0.06 
freq.     746.41  E(vib)   ...       0.06 
freq.     777.42  E(vib)   ...       0.05 
freq.     807.23  E(vib)   ...       0.05 
freq.     822.44  E(vib)   ...       0.05 
freq.     822.88  E(vib)   ...       0.05 
freq.     840.60  E(vib)   ...       0.04 
freq.     877.59  E(vib)   ...       0.04 
freq.     882.39  E(vib)   ...       0.04 
freq.     894.28  E(vib)   ...       0.03 
freq.     900.18  E(vib)   ...       0.03 
freq.     911.79  E(vib)   ...       0.03 
freq.     927.20  E(vib)   ...       0.03 
freq.     943.13  E(vib)   ...       0.03 
freq.     949.52  E(vib)   ...       0.03 
freq.     961.66  E(vib)   ...       0.03 
freq.     976.58  E(vib)   ...       0.03 
freq.     978.81  E(vib)   ...       0.03 
freq.     981.21  E(vib)   ...       0.02 
freq.     991.75  E(vib)   ...       0.02 
freq.    1013.25  E(vib)   ...       0.02 
freq.    1019.75  E(vib)   ...       0.02 
freq.    1032.80  E(vib)   ...       0.02 
freq.    1041.73  E(vib)   ...       0.02 
freq.    1047.98  E(vib)   ...       0.02 
freq.    1061.68  E(vib)   ...       0.02 
freq.    1078.14  E(vib)   ...       0.02 
freq.    1085.82  E(vib)   ...       0.02 
freq.    1124.17  E(vib)   ...       0.01 
freq.    1125.40  E(vib)   ...       0.01 
freq.    1159.66  E(vib)   ...       0.01 
freq.    1160.56  E(vib)   ...       0.01 
freq.    1171.33  E(vib)   ...       0.01 
freq.    1175.57  E(vib)   ...       0.01 
freq.    1202.37  E(vib)   ...       0.01 
freq.    1202.79  E(vib)   ...       0.01 
freq.    1249.30  E(vib)   ...       0.01 
freq.    1264.35  E(vib)   ...       0.01 
freq.    1273.77  E(vib)   ...       0.01 
freq.    1299.08  E(vib)   ...       0.01 
freq.    1314.36  E(vib)   ...       0.01 
freq.    1317.94  E(vib)   ...       0.01 
freq.    1333.08  E(vib)   ...       0.01 
freq.    1338.31  E(vib)   ...       0.01 
freq.    1376.45  E(vib)   ...       0.01 
freq.    1385.41  E(vib)   ...       0.00 
freq.    1389.80  E(vib)   ...       0.00 
freq.    1423.38  E(vib)   ...       0.00 
freq.    1431.09  E(vib)   ...       0.00 
freq.    1433.78  E(vib)   ...       0.00 
freq.    1437.73  E(vib)   ...       0.00 
freq.    1456.48  E(vib)   ...       0.00 
freq.    1463.35  E(vib)   ...       0.00 
freq.    1477.23  E(vib)   ...       0.00 
freq.    1558.55  E(vib)   ...       0.00 
freq.    1567.88  E(vib)   ...       0.00 
freq.    1572.36  E(vib)   ...       0.00 
freq.    1576.13  E(vib)   ...       0.00 
freq.    1579.78  E(vib)   ...       0.00 
freq.    1591.51  E(vib)   ...       0.00 
freq.    2955.72  E(vib)   ...       0.00 
freq.    3050.65  E(vib)   ...       0.00 
freq.    3054.21  E(vib)   ...       0.00 
freq.    3062.93  E(vib)   ...       0.00 
freq.    3065.59  E(vib)   ...       0.00 
freq.    3097.20  E(vib)   ...       0.00 
freq.    3102.38  E(vib)   ...       0.00 
freq.    3113.89  E(vib)   ...       0.00 
freq.    3115.79  E(vib)   ...       0.00 
freq.    3120.63  E(vib)   ...       0.00 
freq.    3121.99  E(vib)   ...       0.00 
freq.    3129.85  E(vib)   ...       0.00 
freq.    3130.69  E(vib)   ...       0.00 
freq.    3130.92  E(vib)   ...       0.00 
freq.    3136.04  E(vib)   ...       0.00 
freq.    3139.17  E(vib)   ...       0.00 
freq.    3150.54  E(vib)   ...       0.00 
freq.    3158.73  E(vib)   ...       0.00 
freq.    3171.93  E(vib)   ...       0.00 
freq.    3188.15  E(vib)   ...       0.00 

------------
INNER ENERGY
------------

The inner energy is: U= E(el) + E(ZPE) + E(vib) + E(rot) + E(trans)
    E(el)   - is the total energy from the electronic structure calculation
              = E(kin-el) + E(nuc-el) + E(el-el) + E(nuc-nuc)
    E(ZPE)  - the the zero temperature vibrational energy from the frequency calculation
    E(vib)  - the the finite temperature correction to E(ZPE) due to population
              of excited vibrational states
    E(rot)  - is the rotational thermal energy
    E(trans)- is the translational thermal energy

Summary of contributions to the inner energy U:
Electronic energy                ...  -2326.81825081 Eh
Zero point energy                ...      0.33672520 Eh     211.30 kcal/mol
Thermal vibrational correction   ...      0.02145118 Eh      13.46 kcal/mol
Thermal rotational correction    ...      0.00141627 Eh       0.89 kcal/mol
Thermal translational correction ...      0.00141627 Eh       0.89 kcal/mol
-----------------------------------------------------------------------
Total thermal energy                  -2326.45724189 Eh


Summary of corrections to the electronic energy:
(perhaps to be used in another calculation)
Total thermal correction                  0.02428373 Eh      15.24 kcal/mol
Non-thermal (ZPE) correction              0.33672520 Eh     211.30 kcal/mol
-----------------------------------------------------------------------
Total correction                          0.36100893 Eh     226.54 kcal/mol


--------
ENTHALPY
--------

The enthalpy is H = U + kB*T
                kB is Boltzmann's constant
Total free energy                 ...  -2326.45724189 Eh 
Thermal Enthalpy correction       ...      0.00094421 Eh       0.59 kcal/mol
-----------------------------------------------------------------------
Total Enthalpy                    ...  -2326.45629768 Eh


Note: Only C1 symmetry has been detected, increase convergence thresholds 
      if your molecule has a higher symmetry. Symmetry factor of 1.0 is   
      used for the rotational entropy correction. 
 

Note: Rotational entropy computed according to Herzberg 
Infrared and Raman Spectra, Chapter V,1, Van Nostrand Reinhold, 1945 
Point Group:  C1, Symmetry Number:   1  
Rotational constants in cm-1:     0.010155     0.006147     0.004291 

Vibrational entropy computed according to the QRRHO of S. Grimme
Chem.Eur.J. 2012 18 9955


-------
ENTROPY
-------

The entropy contributions are T*S = T*(S(el)+S(vib)+S(rot)+S(trans))
     S(el)   - electronic entropy
     S(vib)  - vibrational entropy
     S(rot)  - rotational entropy
     S(trans)- translational entropy
The entropies will be listed as mutliplied by the temperature to get
units of energy

Electronic entropy                ...      0.00130891 Eh      0.82 kcal/mol
Vibrational entropy               ...      0.03794769 Eh     23.81 kcal/mol
Rotational entropy                ...      0.01665488 Eh     10.45 kcal/mol
Translational entropy             ...      0.02073356 Eh     13.01 kcal/mol
-----------------------------------------------------------------------
Final entropy term                ...      0.07664505 Eh     48.10 kcal/mol

In case the symmetry of your molecule has not been determined correctly
or in case you have a reason to use a different symmetry number we print 
out the resulting rotational entropy values for sn=1,12 :
 --------------------------------------------------------
|  sn= 1 | S(rot)=       0.01665488 Eh     10.45 kcal/mol|
|  sn= 2 | S(rot)=       0.01600043 Eh     10.04 kcal/mol|
|  sn= 3 | S(rot)=       0.01561759 Eh      9.80 kcal/mol|
|  sn= 4 | S(rot)=       0.01534597 Eh      9.63 kcal/mol|
|  sn= 5 | S(rot)=       0.01513528 Eh      9.50 kcal/mol|
|  sn= 6 | S(rot)=       0.01496314 Eh      9.39 kcal/mol|
|  sn= 7 | S(rot)=       0.01481759 Eh      9.30 kcal/mol|
|  sn= 8 | S(rot)=       0.01469151 Eh      9.22 kcal/mol|
|  sn= 9 | S(rot)=       0.01458031 Eh      9.15 kcal/mol|
|  sn=10 | S(rot)=       0.01448083 Eh      9.09 kcal/mol|
|  sn=11 | S(rot)=       0.01439084 Eh      9.03 kcal/mol|
|  sn=12 | S(rot)=       0.01430868 Eh      8.98 kcal/mol|
 --------------------------------------------------------


-------------------
GIBBS FREE ENERGY
-------------------

The Gibbs free energy is G = H - T*S

Total enthalpy                    ...  -2326.45629768 Eh 
Total entropy correction          ...     -0.07664505 Eh    -48.10 kcal/mol
-----------------------------------------------------------------------
Final Gibbs free energy         ...  -2326.53294273 Eh

For completeness - the Gibbs free energy minus the electronic energy
G-E(el)                           ...      0.28530808 Eh    179.03 kcal/mol


Timings for individual modules:

Sum of individual times         ...    51689.291 sec (= 861.488 min)
GTO integral calculation        ...        0.652 sec (=   0.011 min)   0.0 %
SCF iterations                  ...      180.474 sec (=   3.008 min)   0.3 %
Analytical frequency calculation...    51508.165 sec (= 858.469 min)  99.6 %
                             ****ORCA TERMINATED NORMALLY****
TOTAL RUN TIME: 0 days 14 hours 21 minutes 30 seconds 426 msec
