
                                 *****************
                                 * O   R   C   A *
                                 *****************

           --- An Ab Initio, DFT and Semiempirical electronic structure package ---

                  #######################################################
                  #                        -***-                        #
                  #          Department of theory and spectroscopy      #
                  #               Directorship: Frank Neese             #
                  #        Max Planck Institute fuer Kohlenforschung    #
                  #                Kaiser Wilhelm Platz 1               #
                  #                 D-45470 Muelheim/Ruhr               #
                  #                      Germany                        #
                  #                                                     #
                  #                  All rights reserved                #
                  #                        -***-                        #
                  #######################################################


                         Program Version 4.2.1 -  RELEASE  -


 With contributions from (in alphabetic order):
   Daniel Aravena         : Magnetic Suceptibility
   Michael Atanasov       : Ab Initio Ligand Field Theory (pilot matlab implementation)
   Alexander A. Auer      : GIAO ZORA, VPT2
   Ute Becker             : Parallelization
   Giovanni Bistoni       : ED, misc. LED, open-shell LED, HFLD
   Martin Brehm           : Molecular dynamics
   Dmytro Bykov           : SCF Hessian
   Vijay G. Chilkuri      : MRCI spin determinant printing, contributions to CSF-ICE
   Dipayan Datta          : RHF DLPNO-CCSD density
   Achintya Kumar Dutta   : EOM-CC, STEOM-CC
   Dmitry Ganyushin       : Spin-Orbit,Spin-Spin,Magnetic field MRCI
   Miquel Garcia          : C-PCM Hessian, Gaussian charge scheme
   Yang Guo               : DLPNO-NEVPT2, CIM, IAO-localization
   Andreas Hansen         : Spin unrestricted coupled pair/coupled cluster methods
   Benjamin Helmich-Paris : CASSCF linear response (MC-RPA)
   Lee Huntington         : MR-EOM, pCC
   Robert Izsak           : Overlap fitted RIJCOSX, COSX-SCS-MP3, EOM
   Christian Kollmar      : KDIIS, OOCD, Brueckner-CCSD(T), CCSD density
   Simone Kossmann        : Meta GGA functionals, TD-DFT gradient, OOMP2, MP2 Hessian
   Martin Krupicka        : AUTO-CI
   Lucas Lang             : DCDCAS
   Dagmar Lenk            : GEPOL surface, SMD
   Dimitrios Liakos       : Extrapolation schemes; Compound Job, initial MDCI parallelization
   Dimitrios Manganas     : Further ROCIS development; embedding schemes
   Dimitrios Pantazis     : SARC Basis sets
   Taras Petrenko         : DFT Hessian,TD-DFT gradient, ASA, ECA, R-Raman, ABS, FL, XAS/XES, NRVS
   Peter Pinski           : DLPNO-MP2, DLPNO-MP2 Gradient
   Christoph Reimann      : Effective Core Potentials
   Marius Retegan         : Local ZFS, SOC
   Christoph Riplinger    : Optimizer, TS searches, QM/MM, DLPNO-CCSD(T), (RO)-DLPNO pert. Triples
   Tobias Risthaus        : Range-separated hybrids, TD-DFT gradient, RPA, STAB
   Michael Roemelt        : Original ROCIS implementation
   Masaaki Saitow         : Open-shell DLPNO-CCSD energy and density
   Barbara Sandhoefer     : DKH picture change effects
   Avijit Sen             : IP-ROCIS
   Kantharuban Sivalingam : CASSCF convergence, NEVPT2, FIC-MRCI
   Bernardo de Souza      : ESD, SOC TD-DFT
   Georgi Stoychev        : AutoAux, RI-MP2 NMR
   Willem Van den Heuvel  : Paramagnetic NMR
   Boris Wezisla          : Elementary symmetry handling
   Frank Wennmohs         : Technical directorship


 We gratefully acknowledge several colleagues who have allowed us to
 interface, adapt or use parts of their codes:
   Stefan Grimme, W. Hujo, H. Kruse,             : VdW corrections, initial TS optimization,
                  C. Bannwarth                     DFT functionals, gCP, sTDA/sTD-DF
   Ed Valeev, F. Pavosevic, A. Kumar             : LibInt (2-el integral package), F12 methods
   Garnet Chan, S. Sharma, J. Yang, R. Olivares  : DMRG
   Ulf Ekstrom                                   : XCFun DFT Library
   Mihaly Kallay                                 : mrcc  (arbitrary order and MRCC methods)
   Andreas Klamt, Michael Diedenhofen            : otool_cosmo (COSMO solvation model)
   Jiri Pittner, Ondrej Demel                    : Mk-CCSD
   Frank Weinhold                                : gennbo (NPA and NBO analysis)
   Christopher J. Cramer and Donald G. Truhlar   : smd solvation model
   Lars Goerigk                                  : TD-DFT with DH, B97 family of functionals
   V. Asgeirsson, H. Jonsson                     : NEB implementation
   FAccTs GmbH                                   : IRC, NEB, NEB-TS, Multilevel, MM, QM/MM, CI optimization
   S Lehtola, MJT Oliveira, MAL Marques          : LibXC Library


 Your calculation uses the libint2 library for the computation of 2-el integrals
 For citations please refer to: http://libint.valeyev.net

 Your ORCA version has been built with support for libXC version: 4.2.3
 For citations please refer to: https://tddft.org/programs/libxc/

 This ORCA versions uses:
   CBLAS   interface :  Fast vector & matrix operations
   LAPACKE interface :  Fast linear algebra routines
   SCALAPACK package :  Parallel linear algebra routines


Your calculation utilizes the atom-pairwise dispersion correction
with the Becke-Johnson damping scheme (D3BJ)
Cite in your paper:
S.Grimme, S.Ehrlich, L.Goerigk, J Comput Chem, (2011), 32, 1456–1465 
S.Grimme, J.Antony, S.Ehrlich and H.Krieg, J.Chem.Phys., 132, (2010), 154104 
   

----- Orbital basis set information -----
Your calculation utilizes the basis: def2-TZVP
   F. Weigend and R. Ahlrichs, Phys. Chem. Chem. Phys. 7, 3297 (2005).

----- AuxJ basis set information -----
Your calculation utilizes the auxiliary basis: def2/J
   F. Weigend, Phys. Chem. Chem. Phys. 8, 1057 (2006).

================================================================================
                                        WARNINGS
                       Please study these warnings very carefully!
================================================================================


WARNING: your system is open-shell and RHF/RKS was chosen
  ===> : WILL SWITCH to UHF/UKS


INFO   : the flag for use of LIBINT has been found!

================================================================================
                                       INPUT FILE
================================================================================
NAME = Cr4A_Freq.inp
|  1> #
|  2> # ORCA calc attempt 1 :-)
|  3> #
|  4> ! BP86 D3BJ RIJCOSX def2-TZVP def2/J Grid6 FinalGrid6 MORead Freq 
|  5> %moinp "Cr4A_Tight.ges"
|  6> * xyz 1 4
|  7>   Cr  -1.02212850929260     -1.31603366868245     -2.22313265248787
|  8>   S   -3.20592241365682     -0.70814929234231     -1.34729599666747
|  9>   N   -0.38185278074552     -0.76287300239863     -0.45152163652826
| 10>   N   0.73373900343811     -2.19903457582926     -2.33835483146822
| 11>   C   -2.88176124078989     -2.47796551020207     -1.20446675879917
| 12>   C   -2.54549654208045     -3.11452595045737     -0.00361489101700
| 13>   C   -2.84689241990273     -3.18347893658016     -2.43093334805902
| 14>   C   -2.17702268291725     -4.46046179942104     -0.03146800156716
| 15>   H   -2.56163434516790     -2.55737301994160      0.93274968825416
| 16>   C   -2.47584178190892     -4.53408349202545     -2.43400426025327
| 17>   H   -3.18278850789564     -2.70140617057135     -3.35577000510154
| 18>   C   -2.13473902619899     -5.16784600589069     -1.23820663459420
| 19>   H   -1.91648515382206     -4.95989393235102      0.90184318656999
| 20>   H   -1.83894175750422     -6.21644586863229     -1.24381520986999
| 21>   H   -2.46310033557541     -5.08378182916845     -3.37497520447316
| 22>   C   -2.58513601451740     -0.01821382906535      0.17170231382214
| 23>   C   -1.19905010640798     -0.07734650094833      0.45419401373688
| 24>   C   -0.73613425138199      0.54198067599069      1.62548003502250
| 25>   C   -3.47782869344046      0.62890547266836      1.02964687111249
| 26>   C   -2.99820003001206      1.23370948509912      2.19103824436856
| 27>   H   -4.53903510928209      0.65786678800728      0.78165630241786
| 28>   C   -1.63001032936037      1.18725398240706      2.47854236027733
| 29>   H   0.32787822984375      0.54652091745494      1.85948142373211
| 30>   H   -3.68681700638073      1.74361197708152      2.86334917338124
| 31>   H   -1.24828143030257      1.67191515253067      3.37728032188098
| 32>   C   0.86099229910980     -1.19018195677567     -0.19306991788423
| 33>   C   1.49085230908250     -1.94418053165796     -1.18087480522810
| 34>   C   1.48684743380217     -2.98376351118221     -3.13826302425203
| 35>   C   2.73634423619830     -3.25204978648451     -2.52887553530581
| 36>   H   1.12618668254411     -3.31694039486747     -4.10847547300787
| 37>   C   2.74283506425660     -2.59899534568992     -1.29624144598514
| 38>   H   3.54020247457518     -2.59109110182868     -0.55901904618536
| 39>   H   3.53392370052768     -3.85030042499455     -2.95794915549505
| 40>   H   1.33730456679797     -0.98555428382564      0.76792123091386
| 41>   C   -0.65244079345288      0.31107696616777     -3.30897290997731
| 42>   H   0.41540225946169      0.56061471273778     -3.32783265008286
| 43>   H   -1.25372196370323      1.18703086424747     -3.03558728140592
| 44>   H   -0.96626503393757     -0.05351627257802     -4.31061448979400
| 45> *
| 46> 
| 47>                          ****END OF INPUT****
================================================================================

                       ****************************
                       * Single Point Calculation *
                       ****************************

---------------------------------
CARTESIAN COORDINATES (ANGSTROEM)
---------------------------------
  Cr    -1.022129   -1.316034   -2.223133
  S     -3.205922   -0.708149   -1.347296
  N     -0.381853   -0.762873   -0.451522
  N      0.733739   -2.199035   -2.338355
  C     -2.881761   -2.477966   -1.204467
  C     -2.545497   -3.114526   -0.003615
  C     -2.846892   -3.183479   -2.430933
  C     -2.177023   -4.460462   -0.031468
  H     -2.561634   -2.557373    0.932750
  C     -2.475842   -4.534083   -2.434004
  H     -3.182789   -2.701406   -3.355770
  C     -2.134739   -5.167846   -1.238207
  H     -1.916485   -4.959894    0.901843
  H     -1.838942   -6.216446   -1.243815
  H     -2.463100   -5.083782   -3.374975
  C     -2.585136   -0.018214    0.171702
  C     -1.199050   -0.077347    0.454194
  C     -0.736134    0.541981    1.625480
  C     -3.477829    0.628905    1.029647
  C     -2.998200    1.233709    2.191038
  H     -4.539035    0.657867    0.781656
  C     -1.630010    1.187254    2.478542
  H      0.327878    0.546521    1.859481
  H     -3.686817    1.743612    2.863349
  H     -1.248281    1.671915    3.377280
  C      0.860992   -1.190182   -0.193070
  C      1.490852   -1.944181   -1.180875
  C      1.486847   -2.983764   -3.138263
  C      2.736344   -3.252050   -2.528876
  H      1.126187   -3.316940   -4.108475
  C      2.742835   -2.598995   -1.296241
  H      3.540202   -2.591091   -0.559019
  H      3.533924   -3.850300   -2.957949
  H      1.337305   -0.985554    0.767921
  C     -0.652441    0.311077   -3.308973
  H      0.415402    0.560615   -3.327833
  H     -1.253722    1.187031   -3.035587
  H     -0.966265   -0.053516   -4.310614

----------------------------
CARTESIAN COORDINATES (A.U.)
----------------------------
  NO LB      ZA    FRAG     MASS         X           Y           Z
   0 Cr   24.0000    0    52.000   -1.931543   -2.486943   -4.201112
   1 S    16.0000    0    32.060   -6.058315   -1.338208   -2.546020
   2 N     7.0000    0    14.007   -0.721597   -1.441621   -0.853252
   3 N     7.0000    0    14.007    1.386566   -4.155573   -4.418850
   4 C     6.0000    0    12.011   -5.445740   -4.682676   -2.276112
   5 C     6.0000    0    12.011   -4.810291   -5.885601   -0.006831
   6 C     6.0000    0    12.011   -5.379847   -6.015903   -4.593798
   7 C     6.0000    0    12.011   -4.113977   -8.429051   -0.059466
   8 H     1.0000    0     1.008   -4.840787   -4.832735    1.762641
   9 C     6.0000    0    12.011   -4.678663   -8.568176   -4.599601
  10 H     1.0000    0     1.008   -6.014599   -5.104918   -6.341486
  11 C     6.0000    0    12.011   -4.034072   -9.765814   -2.339871
  12 H     1.0000    0     1.008   -3.621632   -9.372841    1.704237
  13 H     1.0000    0     1.008   -3.475096  -11.747380   -2.350470
  14 H     1.0000    0     1.008   -4.654585   -9.606955   -6.377779
  15 C     6.0000    0    12.011   -4.885199   -0.034419    0.324470
  16 C     6.0000    0    12.011   -2.265876   -0.146164    0.858302
  17 C     6.0000    0    12.011   -1.391092    1.024195    3.071712
  18 C     6.0000    0    12.011   -6.572144    1.188459    1.945751
  19 C     6.0000    0    12.011   -5.665777    2.331373    4.140462
  20 H     1.0000    0     1.008   -8.577533    1.243188    1.477116
  21 C     6.0000    0    12.011   -3.080273    2.243585    4.683766
  22 H     1.0000    0     1.008    0.619600    1.032775    3.513911
  23 H     1.0000    0     1.008   -6.967074    3.294949    5.410946
  24 H     1.0000    0     1.008   -2.358910    3.159462    6.382135
  25 C     6.0000    0    12.011    1.627040   -2.249118   -0.364849
  26 C     6.0000    0    12.011    2.817303   -3.673969   -2.231530
  27 C     6.0000    0    12.011    2.809734   -5.638496   -5.930458
  28 C     6.0000    0    12.011    5.170941   -6.145483   -4.778882
  29 H     1.0000    0     1.008    2.128184   -6.268109   -7.763893
  30 C     6.0000    0    12.011    5.183207   -4.911389   -2.449541
  31 H     1.0000    0     1.008    6.690013   -4.896453   -1.056393
  32 H     1.0000    0     1.008    6.678148   -7.276013   -5.589714
  33 H     1.0000    0     1.008    2.527139   -1.862428    1.451161
  34 C     6.0000    0    12.011   -1.232934    0.587850   -6.253053
  35 H     1.0000    0     1.008    0.784997    1.059408   -6.288692
  36 H     1.0000    0     1.008   -2.369191    2.243163   -5.736429
  37 H     1.0000    0     1.008   -1.825976   -0.101131   -8.145881

--------------------------------
INTERNAL COORDINATES (ANGSTROEM)
--------------------------------
 Cr     0   0   0     0.000000000000     0.00000000     0.00000000
 S      1   0   0     2.430137666762     0.00000000     0.00000000
 N      1   2   0     1.963299600968    84.10921046     0.00000000
 N      1   2   3     1.968765469733   159.18577522    54.02941350
 C      2   1   3     1.804918309006    67.78074761   263.29716840
 C      5   2   1     1.400117262965   123.83554665   104.31458262
 C      5   2   1     1.415339296438   115.12747145   290.86853759
 C      6   5   2     1.395740695896   118.99368245   186.74881055
 H      6   5   2     1.089705667593   120.06459740     5.99459035
 C      7   5   2     1.400650088940   119.28093630   173.91288993
 H      7   5   2     1.095693011690   120.30214503   349.08058710
 C     10   7   5     1.395685485869   120.04817920   359.47283003
 H      8   6   5     1.090129365430   119.19621641   180.12130313
 H     12  10   7     1.089536209782   119.93166867   180.47351373
 H     10   7   5     1.089842614407   119.42945890   179.05720944
 C      2   1   3     1.780096223274    95.22740141     6.81133199
 C      3   1   2     1.399313721935   122.11610316   348.66151914
 C     17   3   1     1.403484301511   124.31435719   191.60248834
 C     16   2   1     1.397044191521   118.73311435   173.50236033
 C     19  16   2     1.394511193970   119.50987582   183.20437092
 H     19  16   2     1.090182157702   119.64417883     2.99415840
 C     18  17   3     1.393953877833   120.23122950   180.89764153
 H     18  17   3     1.089449321407   120.21355485     2.66721259
 H     20  19  16     1.089126198722   119.97941586   179.76367122
 H     22  18  17     1.090111611638   119.06469477   180.69922242
 C      3   1   2     1.339423057096   112.75802079   164.47195144
 C     26   3   1     1.393196317303   117.08710056   359.63474666
 C      4   1   2     1.350120337877   142.45233753   123.36003630
 C     28   4   1     1.415829402293   110.32886559   180.49000616
 H     28   4   1     1.087379974545   121.44695860     1.16190176
 C     29  28   4     1.394958433662   107.20079774     0.06339266
 H     31  29  28     1.085980723068   127.35005123   179.65893500
 H     29  28   4     1.085422037707   125.64645331   180.51063166
 H     26   3   1     1.091901941090   120.98446883   181.97485373
 C      1   2   3     1.990780522828    99.14914412   259.14067040
 H     35   1   2     1.096774161994   112.09464172   146.68014421
 H     35   1   2     1.097075193033   114.51238524    19.25898149
 H     35   1   2     1.111170436104    99.84869376   262.55963303

---------------------------
INTERNAL COORDINATES (A.U.)
---------------------------
 Cr     0   0   0     0.000000000000     0.00000000     0.00000000
 S      1   0   0     4.592294657907     0.00000000     0.00000000
 N      1   2   0     3.710098564666    84.10921046     0.00000000
 N      1   2   3     3.720427559717   159.18577522    54.02941350
 C      2   1   3     3.410801298121    67.78074761   263.29716840
 C      5   2   1     2.645838182379   123.83554665   104.31458262
 C      5   2   1     2.674603656844   115.12747145   290.86853759
 C      6   5   2     2.637567669212   118.99368245   186.74881055
 H      6   5   2     2.059245278333   120.06459740     5.99459035
 C      7   5   2     2.646845077549   119.28093630   173.91288993
 H      7   5   2     2.070559718945   120.30214503   349.08058710
 C     10   7   5     2.637463337381   120.04817920   359.47283003
 H      8   6   5     2.060045951207   119.19621641   180.12130313
 H     12  10   7     2.058925049478   119.93166867   180.47351373
 H     10   7   5     2.059504070307   119.42945890   179.05720944
 C      2   1   3     3.363894354015    95.22740141     6.81133199
 C      3   1   2     2.644319709895   122.11610316   348.66151914
 C     17   3   1     2.652200963114   124.31435719   191.60248834
 C     16   2   1     2.640030918961   118.73311435   173.50236033
 C     19  16   2     2.635244247291   119.50987582   183.20437092
 H     19  16   2     2.060145714144   119.64417883     2.99415840
 C     18  17   3     2.634191072421   120.23122950   180.89764153
 H     18  17   3     2.058760854246   120.21355485     2.66721259
 H     20  19  16     2.058150240863   119.97941586   179.76367122
 H     22  18  17     2.060012401404   119.06469477   180.69922242
 C      3   1   2     2.531142755372   112.75802079   164.47195144
 C     26   3   1     2.632759490491   117.08710056   359.63474666
 C      4   1   2     2.551357686424   142.45233753   123.36003630
 C     28   4   1     2.675529822688   110.32886559   180.49000616
 H     28   4   1     2.054850355400   121.44695860     1.16190176
 C     29  28   4     2.636089407826   107.20079774     0.06339266
 H     31  29  28     2.052206153317   127.35005123   179.65893500
 H     29  28   4     2.051150390989   125.64645331   180.51063166
 H     26   3   1     2.063395633757   120.98446883   181.97485373
 C      1   2   3     3.762029980889    99.14914412   259.14067040
 H     35   1   2     2.072602796930   112.09464172   146.68014421
 H     35   1   2     2.073171663151   114.51238524    19.25898149
 H     35   1   2     2.099807812347    99.84869376   262.55963303

---------------------
BASIS SET INFORMATION
---------------------
There are 5 groups of distinct atoms

 Group   1 Type Cr  : 17s11p7d1f contracted to 6s4p4d1f pattern {842111/6311/4111/1}
 Group   2 Type S   : 14s9p3d1f contracted to 5s5p2d1f pattern {73211/51111/21/1}
 Group   3 Type N   : 11s6p2d1f contracted to 5s3p2d1f pattern {62111/411/11/1}
 Group   4 Type C   : 11s6p2d1f contracted to 5s3p2d1f pattern {62111/411/11/1}
 Group   5 Type H   : 5s1p contracted to 3s1p pattern {311/1}

Atom   0Cr   basis set group =>   1
Atom   1S    basis set group =>   2
Atom   2N    basis set group =>   3
Atom   3N    basis set group =>   3
Atom   4C    basis set group =>   4
Atom   5C    basis set group =>   4
Atom   6C    basis set group =>   4
Atom   7C    basis set group =>   4
Atom   8H    basis set group =>   5
Atom   9C    basis set group =>   4
Atom  10H    basis set group =>   5
Atom  11C    basis set group =>   4
Atom  12H    basis set group =>   5
Atom  13H    basis set group =>   5
Atom  14H    basis set group =>   5
Atom  15C    basis set group =>   4
Atom  16C    basis set group =>   4
Atom  17C    basis set group =>   4
Atom  18C    basis set group =>   4
Atom  19C    basis set group =>   4
Atom  20H    basis set group =>   5
Atom  21C    basis set group =>   4
Atom  22H    basis set group =>   5
Atom  23H    basis set group =>   5
Atom  24H    basis set group =>   5
Atom  25C    basis set group =>   4
Atom  26C    basis set group =>   4
Atom  27C    basis set group =>   4
Atom  28C    basis set group =>   4
Atom  29H    basis set group =>   5
Atom  30C    basis set group =>   4
Atom  31H    basis set group =>   5
Atom  32H    basis set group =>   5
Atom  33H    basis set group =>   5
Atom  34C    basis set group =>   4
Atom  35H    basis set group =>   5
Atom  36H    basis set group =>   5
Atom  37H    basis set group =>   5
---------------------------------
AUXILIARY/J BASIS SET INFORMATION
---------------------------------
There are 5 groups of distinct atoms

 Group   1 Type Cr  : 19s5p5d3f3g contracted to 8s5p5d2f3g pattern {121111111/11111/11111/21/111}
 Group   2 Type S   : 14s5p5d2f1g contracted to 8s4p3d1f1g pattern {71111111/2111/311/2/1}
 Group   3 Type N   : 12s5p4d2f1g contracted to 6s4p3d1f1g pattern {711111/2111/211/2/1}
 Group   4 Type C   : 12s5p4d2f1g contracted to 6s4p3d1f1g pattern {711111/2111/211/2/1}
 Group   5 Type H   : 5s2p1d contracted to 3s1p1d pattern {311/2/1}

Atom   0Cr   basis set group =>   1
Atom   1S    basis set group =>   2
Atom   2N    basis set group =>   3
Atom   3N    basis set group =>   3
Atom   4C    basis set group =>   4
Atom   5C    basis set group =>   4
Atom   6C    basis set group =>   4
Atom   7C    basis set group =>   4
Atom   8H    basis set group =>   5
Atom   9C    basis set group =>   4
Atom  10H    basis set group =>   5
Atom  11C    basis set group =>   4
Atom  12H    basis set group =>   5
Atom  13H    basis set group =>   5
Atom  14H    basis set group =>   5
Atom  15C    basis set group =>   4
Atom  16C    basis set group =>   4
Atom  17C    basis set group =>   4
Atom  18C    basis set group =>   4
Atom  19C    basis set group =>   4
Atom  20H    basis set group =>   5
Atom  21C    basis set group =>   4
Atom  22H    basis set group =>   5
Atom  23H    basis set group =>   5
Atom  24H    basis set group =>   5
Atom  25C    basis set group =>   4
Atom  26C    basis set group =>   4
Atom  27C    basis set group =>   4
Atom  28C    basis set group =>   4
Atom  29H    basis set group =>   5
Atom  30C    basis set group =>   4
Atom  31H    basis set group =>   5
Atom  32H    basis set group =>   5
Atom  33H    basis set group =>   5
Atom  34C    basis set group =>   4
Atom  35H    basis set group =>   5
Atom  36H    basis set group =>   5
Atom  37H    basis set group =>   5
------------------------------------------------------------------------------
                           ORCA GTO INTEGRAL CALCULATION
                           -- RI-GTO INTEGRALS CHOSEN --
------------------------------------------------------------------------------

                         BASIS SET STATISTICS AND STARTUP INFO

Gaussian basis set:
 # of primitive gaussian shells          ...  559
 # of primitive gaussian functions       ... 1203
 # of contracted shells                  ...  312
 # of contracted basis functions         ...  798
 Highest angular momentum                ...    3
 Maximum contraction depth               ...    8
Auxiliary gaussian basis set:
 # of primitive gaussian shells          ...  670
 # of primitive gaussian functions       ... 1840
 # of contracted shells                  ...  420
 # of contracted aux-basis functions     ... 1296
 Highest angular momentum                ...    4
 Maximum contraction depth               ...   12
Ratio of auxiliary to basis functions    ...  1.62
Integral package used                  ... LIBINT
 One Electron integrals                  ... done
 Ordering auxiliary basis shells         ... done
 Integral threshhold             Thresh  ...  1.000e-10
 Primitive cut-off               TCut    ...  1.000e-11
 Pre-screening matrix                    ... done
 Shell pair data                         ... 
 Ordering of the shell pairs             ... done (   0.004 sec) 37242 of 48828 pairs
 Determination of significant pairs      ... done (   0.000 sec)
 Creation of shell pair data             ... done (   0.002 sec)
 Storage of shell pair data              ... done (   0.003 sec)
 Shell pair data done in (   0.010 sec)
 Computing two index integrals           ... done
 Cholesky decomposition of the V-matrix  ... done


Timings:
 Total evaluation time                   ...   0.509 sec (  0.008 min)
 One electron matrix time                ...   0.165 sec (  0.003 min) = 32.5%
 Schwartz matrix evaluation time         ...   0.289 sec (  0.005 min) = 56.7%
 Two index repulsion integral time       ...   0.017 sec (  0.000 min) =  3.3%
 Cholesky decomposition of V             ...   0.018 sec (  0.000 min) =  3.5%
 Three index repulsion integral time     ...   0.000 sec (  0.000 min) =  0.0%

-------------------------------------------------------------------------------
                                 ORCA SCF
-------------------------------------------------------------------------------

------------
SCF SETTINGS
------------
Hamiltonian:
 Density Functional     Method          .... DFT(GTOs)
 Exchange Functional    Exchange        .... B88
   X-Alpha parameter    XAlpha          ....  0.666667
   Becke's b parameter  XBeta           ....  0.004200
 Correlation Functional Correlation     .... P86
 LDA part of GGA corr.  LDAOpt          .... PW91-LDA
 Gradients option       PostSCFGGA      .... off
   Density functional embedding theory  .... OFF
 RI-approximation to the Coulomb term is turned on
   Number of auxiliary basis functions  .... 1296
   RIJ-COSX (HFX calculated with COS-X)).... on


General Settings:
 Integral files         IntName         .... Cr4A_Freq
 Hartree-Fock type      HFTyp           .... UHF
 Total Charge           Charge          ....    1
 Multiplicity           Mult            ....    4
 Number of Electrons    NEL             ....  177
 Basis Dimension        Dim             ....  798
 Nuclear Repulsion      ENuc            ....   2337.6194405890 Eh

Convergence Acceleration:
 DIIS                   CNVDIIS         .... on
   Start iteration      DIISMaxIt       ....    12
   Startup error        DIISStart       ....  0.200000
   # of expansion vecs  DIISMaxEq       ....     5
   Bias factor          DIISBfac        ....   1.050
   Max. coefficient     DIISMaxC        ....  10.000
 Newton-Raphson         CNVNR           .... off
 SOSCF                  CNVSOSCF        .... off
 Level Shifting         CNVShift        .... on
   Level shift para.    LevelShift      ....    0.2500
   Turn off err/grad.   ShiftErr        ....    0.0010
 Zerner damping         CNVZerner       .... off
 Static damping         CNVDamp         .... on
   Fraction old density DampFac         ....    0.7000
   Max. Damping (<1)    DampMax         ....    0.9800
   Min. Damping (>=0)   DampMin         ....    0.0000
   Turn off err/grad.   DampErr         ....    0.1000
 Fernandez-Rico         CNVRico         .... off

SCF Procedure:
 Maximum # iterations   MaxIter         ....   125
 SCF integral mode      SCFMode         .... Direct
   Integral package                     .... LIBINT
 Reset frequency        DirectResetFreq ....    20
 Integral Threshold     Thresh          ....  1.000e-10 Eh
 Primitive CutOff       TCut            ....  1.000e-11 Eh

Convergence Tolerance:
 Convergence Check Mode ConvCheckMode   .... Total+1el-Energy
 Convergence forced     ConvForced      .... 0
 Energy Change          TolE            ....  1.000e-06 Eh
 1-El. energy change                    ....  1.000e-03 Eh
 DIIS Error             TolErr          ....  1.000e-06


Diagonalization of the overlap matrix:
Smallest eigenvalue                        ... 6.381e-06
Time for diagonalization                   ...    0.060 sec
Threshold for overlap eigenvalues          ... 1.000e-08
Number of eigenvalues below threshold      ... 0
Time for construction of square roots      ...    0.039 sec
Total time needed                          ...    0.101 sec

---------------------
INITIAL GUESS: MOREAD
---------------------
Guess MOs are being read from file: Cr4A_Tight.ges
Input Geometry matches current geometry (good)
Input basis set matches current basis set (good)
MOs were renormalized
MOs were reorthogonalized (Cholesky)
                      ------------------
                      INITIAL GUESS DONE (   0.2 sec)
                      ------------------
-------------------
DFT GRID GENERATION
-------------------

General Integration Accuracy     IntAcc      ...  5.340
Radial Grid Type                 RadialGrid  ... Gauss-Chebyshev
Angular Grid (max. acc.)         AngularGrid ... Lebedev-590
Angular grid pruning method      GridPruning ... 3 (G Style)
Weight generation scheme         WeightScheme... Becke
Basis function cutoff            BFCut       ...    1.0000e-10
Integration weight cutoff        WCut        ...    1.0000e-14
Grids for H and He will be reduced by one unit

# of grid points (after initial pruning)     ... 547726 (   0.3 sec)
# of grid points (after weights+screening)   ... 472247 (   2.5 sec)
nearest neighbour list constructed           ...    0.0 sec
Grid point re-assignment to atoms done       ...    0.0 sec
Grid point division into batches done        ...    3.0 sec
Reduced shell lists constructed in    7.9 sec

Total number of grid points                  ...   472247
Total number of batches                      ...     7402
Average number of points per batch           ...       63
Average number of grid points per atom       ...    12428
Average number of shells per batch           ...   124.06 (39.76%)
Average number of basis functions per batch  ...   308.06 (38.60%)
Average number of large shells per batch     ...    79.21 (63.84%)
Average number of large basis fcns per batch ...   198.88 (64.56%)
Maximum spatial batch extension              ...  23.80, 20.92, 22.15 au
Average spatial batch extension              ...   1.63,  1.62,  1.61 au

Time for grid setup =   10.669 sec

--------------------
COSX GRID GENERATION
--------------------

General Integration Accuracy     IntAcc      ...  3.340
Radial Grid Type                 RadialGrid  ... Gauss-Chebyshev
Angular Grid (max. acc.)         AngularGrid ... Lebedev-50
Angular grid pruning method      GridPruning ... 3 (G Style)
Weight generation scheme         WeightScheme... Becke
Basis function cutoff            BFCut       ...    1.0000e-10
Integration weight cutoff        WCut        ...    1.0000e-14
Grids for H and He will be reduced by one unit

# of grid points (after initial pruning)     ...  18440 (   0.0 sec)
# of grid points (after weights+screening)   ...  16598 (   0.1 sec)
nearest neighbour list constructed           ...    0.0 sec
Grid point re-assignment to atoms done       ...    0.0 sec
Grid point division into batches done        ...    0.0 sec
Reduced shell lists constructed in    0.2 sec

Total number of grid points                  ...    16598
Total number of batches                      ...      276
Average number of points per batch           ...       60
Average number of grid points per atom       ...      437
Average number of shells per batch           ...   159.42 (51.09%)
Average number of basis functions per batch  ...   406.91 (50.99%)
Average number of large shells per batch     ...   106.41 (66.75%)
Average number of large basis fcns per batch ...   272.26 (66.91%)
Maximum spatial batch extension              ...  18.16, 20.59, 16.72 au
Average spatial batch extension              ...   4.56,  4.93,  4.61 au

Overlap Fitting                  UseSFitting ... on
Constructing numerical overlap ... done (      0.2 sec)
Inverting numerical overlap    ... done (      0.0 sec)
Obtaining analytic overlap     ... done (      0.0 sec)
Final contraction and storage  ... done (      0.0 sec)


General Integration Accuracy     IntAcc      ...  3.670
Radial Grid Type                 RadialGrid  ... Gauss-Chebyshev
Angular Grid (max. acc.)         AngularGrid ... Lebedev-50
Angular grid pruning method      GridPruning ... 3 (G Style)
Weight generation scheme         WeightScheme... Becke
Basis function cutoff            BFCut       ...    1.0000e-10
Integration weight cutoff        WCut        ...    1.0000e-14
Grids for H and He will be reduced by one unit

# of grid points (after initial pruning)     ...  23220 (   0.0 sec)
# of grid points (after weights+screening)   ...  20862 (   0.1 sec)
nearest neighbour list constructed           ...    0.0 sec
Grid point re-assignment to atoms done       ...    0.0 sec
Grid point division into batches done        ...    0.0 sec
Reduced shell lists constructed in    0.3 sec

Total number of grid points                  ...    20862
Total number of batches                      ...      341
Average number of points per batch           ...       61
Average number of grid points per atom       ...      549
Average number of shells per batch           ...   155.22 (49.75%)
Average number of basis functions per batch  ...   394.73 (49.46%)
Average number of large shells per batch     ...   102.94 (66.32%)
Average number of large basis fcns per batch ...   262.66 (66.54%)
Maximum spatial batch extension              ...  23.24, 22.54, 18.70 au
Average spatial batch extension              ...   4.31,  4.43,  4.23 au

Overlap Fitting                  UseSFitting ... on
Constructing numerical overlap ... done (      0.2 sec)
Inverting numerical overlap    ... done (      0.0 sec)
Obtaining analytic overlap     ... done (      0.0 sec)
Final contraction and storage  ... done (      0.0 sec)


General Integration Accuracy     IntAcc      ...  4.010
Radial Grid Type                 RadialGrid  ... Gauss-Chebyshev
Angular Grid (max. acc.)         AngularGrid ... Lebedev-110
Angular grid pruning method      GridPruning ... 3 (G Style)
Weight generation scheme         WeightScheme... Becke
Basis function cutoff            BFCut       ...    1.0000e-10
Integration weight cutoff        WCut        ...    1.0000e-14
Grids for H and He will be reduced by one unit

# of grid points (after initial pruning)     ...  44284 (   0.0 sec)
# of grid points (after weights+screening)   ...  39461 (   0.2 sec)
nearest neighbour list constructed           ...    0.0 sec
Grid point re-assignment to atoms done       ...    0.0 sec
Grid point division into batches done        ...    0.0 sec
Reduced shell lists constructed in    0.5 sec

Total number of grid points                  ...    39461
Total number of batches                      ...      635
Average number of points per batch           ...       62
Average number of grid points per atom       ...     1038
Average number of shells per batch           ...   149.31 (47.86%)
Average number of basis functions per batch  ...   378.68 (47.45%)
Average number of large shells per batch     ...    98.51 (65.97%)
Average number of large basis fcns per batch ...   251.08 (66.30%)
Maximum spatial batch extension              ...  26.48, 21.67, 19.52 au
Average spatial batch extension              ...   3.72,  3.73,  3.58 au

Overlap Fitting                  UseSFitting ... on
Constructing numerical overlap ... done (      0.4 sec)
Inverting numerical overlap    ... done (      0.0 sec)
Obtaining analytic overlap     ... done (      0.0 sec)
Final contraction and storage  ... done (      0.0 sec)

Time for X-Grid setup             =    2.450 sec
--------------
SCF ITERATIONS
--------------
ITER       Energy         Delta-E        Max-DP      RMS-DP      [F,P]     Damp
               ***  Starting incremental Fock matrix formation  ***
  0  -2248.0609924583   0.000000000000 0.00039338  0.00000248  0.0000019 0.7000
                 **** Energy Check signals convergence ****

               *****************************************************
               *                     SUCCESS                       *
               *           SCF CONVERGED AFTER   1 CYCLES          *
               *****************************************************

Setting up the final grid:

General Integration Accuracy     IntAcc      ...  5.340
Radial Grid Type                 RadialGrid  ... Gauss-Chebyshev
Angular Grid (max. acc.)         AngularGrid ... Lebedev-590
Angular grid pruning method      GridPruning ... 3 (G Style)
Weight generation scheme         WeightScheme... Becke
Basis function cutoff            BFCut       ...    1.0000e-10
Integration weight cutoff        WCut        ...    1.0000e-14
Grids for H and He will be reduced by one unit

# of grid points (after initial pruning)     ... 547726 (   0.2 sec)
# of grid points (after weights+screening)   ... 472247 (   2.5 sec)
nearest neighbour list constructed           ...    0.0 sec
Grid point re-assignment to atoms done       ...    0.0 sec
Grid point division into batches done        ...    2.9 sec
Reduced shell lists constructed in    7.9 sec

Total number of grid points                  ...   472247
Total number of batches                      ...     7402
Average number of points per batch           ...       63
Average number of grid points per atom       ...    12428
Average number of shells per batch           ...   124.06 (39.76%)
Average number of basis functions per batch  ...   308.06 (38.60%)
Average number of large shells per batch     ...    79.21 (63.84%)
Average number of large basis fcns per batch ...   198.88 (64.56%)
Maximum spatial batch extension              ...  23.80, 20.92, 22.15 au
Average spatial batch extension              ...   1.63,  1.62,  1.61 au

Final grid set up in   10.5 sec
Final integration                            ... done (  21.3 sec)
Change in XC energy                          ...    -0.000001257
Integrated number of electrons               ...   177.000012969
Previous integrated no of electrons          ...   177.000012975

----------------
TOTAL SCF ENERGY
----------------

Total Energy       :        -2248.06099354 Eh          -61172.84960 eV

Components:
Nuclear Repulsion  :         2337.61944059 Eh           63609.85884 eV
Electronic Energy  :        -4585.68043413 Eh         -124782.70844 eV
One Electron Energy:        -7705.49129061 Eh         -209677.07779 eV
Two Electron Energy:         3119.81085648 Eh           84894.36935 eV

Virial components:
Potential Energy   :        -4489.61152143 Eh         -122168.54043 eV
Kinetic Energy     :         2241.55052789 Eh           60995.69082 eV
Virial Ratio       :            2.00290445


DFT components:
N(Alpha)           :       90.000005853501 electrons
N(Beta)            :       87.000007115418 electrons
N(Total)           :      177.000012968919 electrons
E(X)               :     -185.044399665450 Eh       
E(C)               :       -6.899331605683 Eh       
E(XC)              :     -191.943731271134 Eh       
DFET-embed. en.    :        0.000000000000 Eh       

---------------
SCF CONVERGENCE
---------------

  Last Energy change         ...    1.7723e-07  Tolerance :   1.0000e-06
  Last MAX-Density change    ...    1.7079e-04  Tolerance :   1.0000e-05
  Last RMS-Density change    ...    1.0822e-06  Tolerance :   1.0000e-06
  Last DIIS Error            ...    1.3321e-06  Tolerance :   1.0000e-06

             **** THE GBW FILE WAS UPDATED (Cr4A_Freq.gbw) ****
             **** DENSITY FILE WAS UPDATED (Cr4A_Freq.scfp) ****
             **** ENERGY FILE WAS UPDATED (Cr4A_Freq.en.tmp) ****
----------------------
UHF SPIN CONTAMINATION
----------------------

Warning: in a DFT calculation there is little theoretical justification to 
         calculate <S**2> as in Hartree-Fock theory. We will do it anyways
         but you should keep in mind that the values have only limited relevance

Expectation value of <S**2>     :     3.803990
Ideal value S*(S+1) for S=1.5   :     3.750000
Deviation                       :     0.053990

             **** THE GBW FILE WAS UPDATED (Cr4A_Freq.gbw) ****
             **** DENSITY FILE WAS UPDATED (Cr4A_Freq.scfp) ****
----------------
ORBITAL ENERGIES
----------------
                 SPIN UP ORBITALS
  NO   OCC          E(Eh)            E(eV) 
   0   1.0000    -214.701149     -5842.3153 
   1   1.0000     -88.279042     -2402.1949 
   2   1.0000     -24.432738      -664.8486 
   3   1.0000     -20.798477      -565.9553 
   4   1.0000     -20.796620      -565.9048 
   5   1.0000     -20.792232      -565.7854 
   6   1.0000     -14.170673      -385.6036 
   7   1.0000     -14.143426      -384.8622 
   8   1.0000     -10.092878      -274.6412 
   9   1.0000     -10.088950      -274.5343 
  10   1.0000     -10.086525      -274.4683 
  11   1.0000     -10.073405      -274.1113 
  12   1.0000     -10.063041      -273.8293 
  13   1.0000     -10.055354      -273.6201 
  14   1.0000     -10.052580      -273.5446 
  15   1.0000     -10.052518      -273.5429 
  16   1.0000     -10.049105      -273.4500 
  17   1.0000     -10.045989      -273.3653 
  18   1.0000     -10.041857      -273.2528 
  19   1.0000     -10.041344      -273.2389 
  20   1.0000     -10.037457      -273.1331 
  21   1.0000     -10.034575      -273.0547 
  22   1.0000     -10.028590      -272.8918 
  23   1.0000     -10.024778      -272.7881 
  24   1.0000     -10.013604      -272.4840 
  25   1.0000      -9.993297      -271.9314 
  26   1.0000      -7.858423      -213.8386 
  27   1.0000      -5.879292      -159.9837 
  28   1.0000      -5.875360      -159.8767 
  29   1.0000      -5.871507      -159.7718 
  30   1.0000      -2.912025       -79.2402 
  31   1.0000      -1.909467       -51.9592 
  32   1.0000      -1.903987       -51.8101 
  33   1.0000      -1.893688       -51.5299 
  34   1.0000      -1.021855       -27.8061 
  35   1.0000      -0.995617       -27.0921 
  36   1.0000      -0.945753       -25.7352 
  37   1.0000      -0.920431       -25.0462 
  38   1.0000      -0.879395       -23.9295 
  39   1.0000      -0.839473       -22.8432 
  40   1.0000      -0.829948       -22.5840 
  41   1.0000      -0.823846       -22.4180 
  42   1.0000      -0.816669       -22.2227 
  43   1.0000      -0.791267       -21.5315 
  44   1.0000      -0.772078       -21.0093 
  45   1.0000      -0.726787       -19.7769 
  46   1.0000      -0.719942       -19.5906 
  47   1.0000      -0.702421       -19.1139 
  48   1.0000      -0.690125       -18.7792 
  49   1.0000      -0.676587       -18.4109 
  50   1.0000      -0.665290       -18.1035 
  51   1.0000      -0.644859       -17.5475 
  52   1.0000      -0.620034       -16.8720 
  53   1.0000      -0.611883       -16.6502 
  54   1.0000      -0.600490       -16.3402 
  55   1.0000      -0.593435       -16.1482 
  56   1.0000      -0.570047       -15.5118 
  57   1.0000      -0.560117       -15.2416 
  58   1.0000      -0.555020       -15.1029 
  59   1.0000      -0.546829       -14.8800 
  60   1.0000      -0.532597       -14.4927 
  61   1.0000      -0.527077       -14.3425 
  62   1.0000      -0.522138       -14.2081 
  63   1.0000      -0.518681       -14.1140 
  64   1.0000      -0.506623       -13.7859 
  65   1.0000      -0.506276       -13.7765 
  66   1.0000      -0.497428       -13.5357 
  67   1.0000      -0.481529       -13.1031 
  68   1.0000      -0.475047       -12.9267 
  69   1.0000      -0.472984       -12.8705 
  70   1.0000      -0.471425       -12.8281 
  71   1.0000      -0.467517       -12.7218 
  72   1.0000      -0.462027       -12.5724 
  73   1.0000      -0.453989       -12.3537 
  74   1.0000      -0.452889       -12.3237 
  75   1.0000      -0.450960       -12.2712 
  76   1.0000      -0.446288       -12.1441 
  77   1.0000      -0.443753       -12.0751 
  78   1.0000      -0.430711       -11.7203 
  79   1.0000      -0.423697       -11.5294 
  80   1.0000      -0.390408       -10.6235 
  81   1.0000      -0.382249       -10.4015 
  82   1.0000      -0.374854       -10.2003 
  83   1.0000      -0.371201       -10.1009 
  84   1.0000      -0.361706        -9.8425 
  85   1.0000      -0.358736        -9.7617 
  86   1.0000      -0.346854        -9.4384 
  87   1.0000      -0.336689        -9.1618 
  88   1.0000      -0.309291        -8.4162 
  89   1.0000      -0.308198        -8.3865 
  90   0.0000      -0.256318        -6.9748 
  91   0.0000      -0.238442        -6.4883 
  92   0.0000      -0.211493        -5.7550 
  93   0.0000      -0.197976        -5.3872 
  94   0.0000      -0.194736        -5.2990 
  95   0.0000      -0.180998        -4.9252 
  96   0.0000      -0.161170        -4.3857 
  97   0.0000      -0.142448        -3.8762 
  98   0.0000      -0.117491        -3.1971 
  99   0.0000      -0.115602        -3.1457 
 100   0.0000      -0.106015        -2.8848 
 101   0.0000      -0.080956        -2.2029 
 102   0.0000      -0.077571        -2.1108 
 103   0.0000      -0.075501        -2.0545 
 104   0.0000      -0.070981        -1.9315 
 105   0.0000      -0.064533        -1.7560 
 106   0.0000      -0.055906        -1.5213 
 107   0.0000      -0.054956        -1.4954 
 108   0.0000      -0.049426        -1.3449 
 109   0.0000      -0.046426        -1.2633 
 110   0.0000      -0.042541        -1.1576 
 111   0.0000      -0.036016        -0.9800 
 112   0.0000      -0.033266        -0.9052 
 113   0.0000      -0.025077        -0.6824 
 114   0.0000      -0.022124        -0.6020 
 115   0.0000      -0.017657        -0.4805 
 116   0.0000      -0.014606        -0.3974 
 117   0.0000      -0.010177        -0.2769 
 118   0.0000      -0.008413        -0.2289 
 119   0.0000      -0.004948        -0.1346 
 120   0.0000      -0.000883        -0.0240 
 121   0.0000       0.003097         0.0843 
 122   0.0000       0.007591         0.2065 
 123   0.0000       0.015077         0.4103 
 124   0.0000       0.022039         0.5997 
 125   0.0000       0.027787         0.7561 
 126   0.0000       0.034366         0.9352 
 127   0.0000       0.036688         0.9983 
 128   0.0000       0.045657         1.2424 
 129   0.0000       0.047953         1.3049 
 130   0.0000       0.051415         1.3991 
 131   0.0000       0.053975         1.4687 
 132   0.0000       0.064528         1.7559 
 133   0.0000       0.067758         1.8438 
 134   0.0000       0.069484         1.8908 
 135   0.0000       0.071525         1.9463 
 136   0.0000       0.074112         2.0167 
 137   0.0000       0.075542         2.0556 
 138   0.0000       0.081153         2.2083 
 139   0.0000       0.083605         2.2750 
 140   0.0000       0.091916         2.5012 
 141   0.0000       0.095532         2.5996 
 142   0.0000       0.097141         2.6433 
 143   0.0000       0.104549         2.8449 
 144   0.0000       0.106015         2.8848 
 145   0.0000       0.107953         2.9375 
 146   0.0000       0.115662         3.1473 
 147   0.0000       0.118266         3.2182 
 148   0.0000       0.122118         3.3230 
 149   0.0000       0.127450         3.4681 
 150   0.0000       0.132196         3.5972 
 151   0.0000       0.135436         3.6854 
 152   0.0000       0.139771         3.8034 
 153   0.0000       0.143467         3.9039 
 154   0.0000       0.148964         4.0535 
 155   0.0000       0.156502         4.2586 
 156   0.0000       0.162816         4.4305 
 157   0.0000       0.166611         4.5337 
 158   0.0000       0.169884         4.6228 
 159   0.0000       0.170472         4.6388 
 160   0.0000       0.174089         4.7372 
 161   0.0000       0.183198         4.9851 
 162   0.0000       0.185008         5.0343 
 163   0.0000       0.190617         5.1870 
 164   0.0000       0.191761         5.2181 
 165   0.0000       0.203052         5.5253 
 166   0.0000       0.205968         5.6047 
 167   0.0000       0.209092         5.6897 
 168   0.0000       0.214843         5.8462 
 169   0.0000       0.219285         5.9670 
 170   0.0000       0.224293         6.1033 
 171   0.0000       0.225876         6.1464 
 172   0.0000       0.229288         6.2392 
 173   0.0000       0.233767         6.3611 
 174   0.0000       0.238298         6.4844 
 175   0.0000       0.242455         6.5975 
 176   0.0000       0.246263         6.7012 
 177   0.0000       0.248649         6.7661 
 178   0.0000       0.255737         6.9590 
 179   0.0000       0.256732         6.9860 
 180   0.0000       0.259108         7.0507 
 181   0.0000       0.264736         7.2038 
 182   0.0000       0.267927         7.2907 
 183   0.0000       0.273575         7.4443 
 184   0.0000       0.277829         7.5601 
 185   0.0000       0.280369         7.6292 
 186   0.0000       0.283503         7.7145 
 187   0.0000       0.283706         7.7200 
 188   0.0000       0.289038         7.8651 
 189   0.0000       0.292446         7.9579 
 190   0.0000       0.295228         8.0336 
 191   0.0000       0.298236         8.1154 
 192   0.0000       0.305676         8.3179 
 193   0.0000       0.307193         8.3592 
 194   0.0000       0.311628         8.4798 
 195   0.0000       0.314885         8.5685 
 196   0.0000       0.318236         8.6597 
 197   0.0000       0.322563         8.7774 
 198   0.0000       0.327677         8.9165 
 199   0.0000       0.328772         8.9464 
 200   0.0000       0.331014         9.0074 
 201   0.0000       0.335712         9.1352 
 202   0.0000       0.339306         9.2330 
 203   0.0000       0.345064         9.3897 
 204   0.0000       0.347573         9.4579 
 205   0.0000       0.350494         9.5374 
 206   0.0000       0.357688         9.7332 
 207   0.0000       0.358409         9.7528 
 208   0.0000       0.364394         9.9157 
 209   0.0000       0.366418         9.9708 
 210   0.0000       0.370931        10.0935 
 211   0.0000       0.378314        10.2945 
 212   0.0000       0.380467        10.3530 
 213   0.0000       0.390954        10.6384 
 214   0.0000       0.397591        10.8190 
 215   0.0000       0.398390        10.8407 
 216   0.0000       0.403753        10.9867 
 217   0.0000       0.410456        11.1691 
 218   0.0000       0.416275        11.3274 
 219   0.0000       0.425377        11.5751 
 220   0.0000       0.432556        11.7705 
 221   0.0000       0.438125        11.9220 
 222   0.0000       0.439843        11.9687 
 223   0.0000       0.451966        12.2986 
 224   0.0000       0.454474        12.3669 
 225   0.0000       0.456866        12.4320 
 226   0.0000       0.461694        12.5633 
 227   0.0000       0.465303        12.6615 
 228   0.0000       0.479559        13.0495 
 229   0.0000       0.481285        13.0964 
 230   0.0000       0.490167        13.3381 
 231   0.0000       0.491058        13.3624 
 232   0.0000       0.500229        13.6119 
 233   0.0000       0.506164        13.7734 
 234   0.0000       0.506768        13.7899 
 235   0.0000       0.514786        14.0080 
 236   0.0000       0.522456        14.2168 
 237   0.0000       0.524817        14.2810 
 238   0.0000       0.533778        14.5248 
 239   0.0000       0.536309        14.5937 
 240   0.0000       0.539539        14.6816 
 241   0.0000       0.550093        14.9688 
 242   0.0000       0.553976        15.0745 
 243   0.0000       0.557565        15.1721 
 244   0.0000       0.560930        15.2637 
 245   0.0000       0.571504        15.5514 
 246   0.0000       0.579199        15.7608 
 247   0.0000       0.579812        15.7775 
 248   0.0000       0.590853        16.0779 
 249   0.0000       0.595501        16.2044 
 250   0.0000       0.596108        16.2209 
 251   0.0000       0.602124        16.3846 
 252   0.0000       0.609563        16.5870 
 253   0.0000       0.615913        16.7598 
 254   0.0000       0.620942        16.8967 
 255   0.0000       0.627371        17.0716 
 256   0.0000       0.630642        17.1606 
 257   0.0000       0.637131        17.3372 
 258   0.0000       0.647014        17.6062 
 259   0.0000       0.652211        17.7476 
 260   0.0000       0.659744        17.9525 
 261   0.0000       0.664572        18.0839 
 262   0.0000       0.671627        18.2759 
 263   0.0000       0.681066        18.5328 
 264   0.0000       0.683870        18.6091 
 265   0.0000       0.685797        18.6615 
 266   0.0000       0.710388        19.3306 
 267   0.0000       0.712449        19.3867 
 268   0.0000       0.719896        19.5894 
 269   0.0000       0.724136        19.7047 
 270   0.0000       0.726047        19.7567 
 271   0.0000       0.733235        19.9523 
 272   0.0000       0.750848        20.4316 
 273   0.0000       0.751505        20.4495 
 274   0.0000       0.757799        20.6208 
 275   0.0000       0.770662        20.9708 
 276   0.0000       0.774120        21.0649 
 277   0.0000       0.777744        21.1635 
 278   0.0000       0.786101        21.3909 
 279   0.0000       0.790824        21.5194 
 280   0.0000       0.794803        21.6277 
 281   0.0000       0.803592        21.8669 
 282   0.0000       0.817202        22.2372 
 283   0.0000       0.818138        22.2627 
 284   0.0000       0.825548        22.4643 
 285   0.0000       0.831556        22.6278 
 286   0.0000       0.839341        22.8396 
 287   0.0000       0.850868        23.1533 
 288   0.0000       0.854128        23.2420 
 289   0.0000       0.858053        23.3488 
 290   0.0000       0.873148        23.7596 
 291   0.0000       0.878438        23.9035 
 292   0.0000       0.889714        24.2104 
 293   0.0000       0.897994        24.4357 
 294   0.0000       0.900028        24.4910 
 295   0.0000       0.909737        24.7552 
 296   0.0000       0.914845        24.8942 
 297   0.0000       0.921659        25.0796 
 298   0.0000       0.932003        25.3611 
 299   0.0000       0.938496        25.5378 
 300   0.0000       0.942055        25.6346 
 301   0.0000       0.947556        25.7843 
 302   0.0000       0.964967        26.2581 
 303   0.0000       0.968298        26.3487 
 304   0.0000       0.974159        26.5082 
 305   0.0000       0.988295        26.8929 
 306   0.0000       0.992805        27.0156 
 307   0.0000       0.994309        27.0565 
 308   0.0000       0.999863        27.2077 
 309   0.0000       1.010533        27.4980 
 310   0.0000       1.024523        27.8787 
 311   0.0000       1.027378        27.9564 
 312   0.0000       1.029303        28.0088 
 313   0.0000       1.037987        28.2451 
 314   0.0000       1.041690        28.3458 
 315   0.0000       1.050306        28.5803 
 316   0.0000       1.053378        28.6639 
 317   0.0000       1.061630        28.8884 
 318   0.0000       1.067373        29.0447 
 319   0.0000       1.068128        29.0653 
 320   0.0000       1.073219        29.2038 
 321   0.0000       1.081869        29.4391 
 322   0.0000       1.085859        29.5477 
 323   0.0000       1.092062        29.7165 
 324   0.0000       1.099292        29.9133 
 325   0.0000       1.110202        30.2101 
 326   0.0000       1.112677        30.2775 
 327   0.0000       1.121043        30.5051 
 328   0.0000       1.126205        30.6456 
 329   0.0000       1.127796        30.6889 
 330   0.0000       1.137234        30.9457 
 331   0.0000       1.145401        31.1679 
 332   0.0000       1.169678        31.8286 
 333   0.0000       1.182968        32.1902 
 334   0.0000       1.185766        32.2663 
 335   0.0000       1.195688        32.5363 
 336   0.0000       1.207176        32.8489 
 337   0.0000       1.214852        33.0578 
 338   0.0000       1.224895        33.3311 
 339   0.0000       1.234372        33.5890 
 340   0.0000       1.246381        33.9157 
 341   0.0000       1.260344        34.2957 
 342   0.0000       1.267308        34.4852 
 343   0.0000       1.269888        34.5554 
 344   0.0000       1.275253        34.7014 
 345   0.0000       1.283521        34.9264 
 346   0.0000       1.286953        35.0198 
 347   0.0000       1.292987        35.1840 
 348   0.0000       1.299165        35.3521 
 349   0.0000       1.310172        35.6516 
 350   0.0000       1.312466        35.7140 
 351   0.0000       1.325161        36.0595 
 352   0.0000       1.329503        36.1776 
 353   0.0000       1.330522        36.2053 
 354   0.0000       1.335777        36.3483 
 355   0.0000       1.338658        36.4267 
 356   0.0000       1.346619        36.6434 
 357   0.0000       1.352341        36.7991 
 358   0.0000       1.362466        37.0746 
 359   0.0000       1.370448        37.2918 
 360   0.0000       1.373657        37.3791 
 361   0.0000       1.379859        37.5479 
 362   0.0000       1.387105        37.7450 
 363   0.0000       1.393620        37.9223 
 364   0.0000       1.394614        37.9494 
 365   0.0000       1.398347        38.0510 
 366   0.0000       1.414897        38.5013 
 367   0.0000       1.416649        38.5490 
 368   0.0000       1.420587        38.6561 
 369   0.0000       1.428874        38.8816 
 370   0.0000       1.432552        38.9817 
 371   0.0000       1.438060        39.1316 
 372   0.0000       1.448603        39.4185 
 373   0.0000       1.451122        39.4870 
 374   0.0000       1.460464        39.7412 
 375   0.0000       1.463977        39.8369 
 376   0.0000       1.469074        39.9755 
 377   0.0000       1.474021        40.1101 
 378   0.0000       1.475404        40.1478 
 379   0.0000       1.484781        40.4029 
 380   0.0000       1.487438        40.4753 
 381   0.0000       1.496689        40.7270 
 382   0.0000       1.501787        40.8657 
 383   0.0000       1.512285        41.1514 
 384   0.0000       1.519924        41.3592 
 385   0.0000       1.522074        41.4177 
 386   0.0000       1.528156        41.5832 
 387   0.0000       1.535755        41.7900 
 388   0.0000       1.541945        41.9585 
 389   0.0000       1.544614        42.0311 
 390   0.0000       1.551778        42.2260 
 391   0.0000       1.557903        42.3927 
 392   0.0000       1.567641        42.6577 
 393   0.0000       1.573208        42.8092 
 394   0.0000       1.575483        42.8711 
 395   0.0000       1.587323        43.1932 
 396   0.0000       1.591630        43.3104 
 397   0.0000       1.596436        43.4412 
 398   0.0000       1.604213        43.6529 
 399   0.0000       1.609825        43.8056 
 400   0.0000       1.621174        44.1144 
 401   0.0000       1.626155        44.2499 
 402   0.0000       1.643783        44.7296 
 403   0.0000       1.649812        44.8937 
 404   0.0000       1.654767        45.0285 
 405   0.0000       1.662533        45.2398 
 406   0.0000       1.674683        45.5704 
 407   0.0000       1.678410        45.6718 
 408   0.0000       1.690289        45.9951 
 409   0.0000       1.713042        46.6143 
 410   0.0000       1.715954        46.6935 
 411   0.0000       1.719540        46.7911 
 412   0.0000       1.730426        47.0873 
 413   0.0000       1.743342        47.4387 
 414   0.0000       1.749985        47.6195 
 415   0.0000       1.762896        47.9708 
 416   0.0000       1.769449        48.1492 
 417   0.0000       1.780095        48.4388 
 418   0.0000       1.790804        48.7302 
 419   0.0000       1.811007        49.2800 
 420   0.0000       1.816782        49.4371 
 421   0.0000       1.820170        49.5293 
 422   0.0000       1.831910        49.8488 
 423   0.0000       1.837093        49.9898 
 424   0.0000       1.843335        50.1597 
 425   0.0000       1.848643        50.3041 
 426   0.0000       1.853122        50.4260 
 427   0.0000       1.858854        50.5820 
 428   0.0000       1.875230        51.0276 
 429   0.0000       1.885506        51.3072 
 430   0.0000       1.892001        51.4840 
 431   0.0000       1.901246        51.7355 
 432   0.0000       1.905910        51.8625 
 433   0.0000       1.913166        52.0599 
 434   0.0000       1.913673        52.0737 
 435   0.0000       1.926511        52.4230 
 436   0.0000       1.929164        52.4952 
 437   0.0000       1.939664        52.7809 
 438   0.0000       1.948987        53.0346 
 439   0.0000       1.954834        53.1937 
 440   0.0000       1.957622        53.2696 
 441   0.0000       1.969468        53.5919 
 442   0.0000       1.981957        53.9318 
 443   0.0000       1.992138        54.2088 
 444   0.0000       1.999024        54.3962 
 445   0.0000       2.002313        54.4857 
 446   0.0000       2.012241        54.7559 
 447   0.0000       2.022828        55.0440 
 448   0.0000       2.031481        55.2794 
 449   0.0000       2.035336        55.3843 
 450   0.0000       2.043347        55.6023 
 451   0.0000       2.051994        55.8376 
 452   0.0000       2.055900        55.9439 
 453   0.0000       2.069358        56.3101 
 454   0.0000       2.085054        56.7372 
 455   0.0000       2.092531        56.9407 
 456   0.0000       2.103503        57.2392 
 457   0.0000       2.120037        57.6891 
 458   0.0000       2.123362        57.7796 
 459   0.0000       2.144755        58.3618 
 460   0.0000       2.148053        58.4515 
 461   0.0000       2.171999        59.1031 
 462   0.0000       2.180734        59.3408 
 463   0.0000       2.190802        59.6147 
 464   0.0000       2.196304        59.7645 
 465   0.0000       2.202031        59.9203 
 466   0.0000       2.205433        60.0129 
 467   0.0000       2.232968        60.7621 
 468   0.0000       2.234028        60.7910 
 469   0.0000       2.240648        60.9711 
 470   0.0000       2.255628        61.3788 
 471   0.0000       2.266426        61.6726 
 472   0.0000       2.274508        61.8925 
 473   0.0000       2.284720        62.1704 
 474   0.0000       2.292111        62.3715 
 475   0.0000       2.295736        62.4701 
 476   0.0000       2.304674        62.7134 
 477   0.0000       2.313171        62.9446 
 478   0.0000       2.327464        63.3335 
 479   0.0000       2.334858        63.5347 
 480   0.0000       2.341502        63.7155 
 481   0.0000       2.357650        64.1549 
 482   0.0000       2.362231        64.2796 
 483   0.0000       2.370499        64.5046 
 484   0.0000       2.374258        64.6069 
 485   0.0000       2.382714        64.8370 
 486   0.0000       2.389069        65.0099 
 487   0.0000       2.391923        65.0875 
 488   0.0000       2.403438        65.4009 
 489   0.0000       2.408027        65.5257 
 490   0.0000       2.411211        65.6124 
 491   0.0000       2.417328        65.7788 
 492   0.0000       2.420862        65.8750 
 493   0.0000       2.428271        66.0766 
 494   0.0000       2.433353        66.2149 
 495   0.0000       2.436826        66.3094 
 496   0.0000       2.441771        66.4440 
 497   0.0000       2.445580        66.5476 
 498   0.0000       2.449901        66.6652 
 499   0.0000       2.454769        66.7977 
 500   0.0000       2.466551        67.1183 
 501   0.0000       2.470317        67.2207 
 502   0.0000       2.480616        67.5010 
 503   0.0000       2.489583        67.7450 
 504   0.0000       2.492072        67.8127 
 505   0.0000       2.497618        67.9636 
 506   0.0000       2.505419        68.1759 
 507   0.0000       2.508907        68.2708 
 508   0.0000       2.511373        68.3379 
 509   0.0000       2.519281        68.5531 
 510   0.0000       2.521990        68.6268 
 511   0.0000       2.523336        68.6635 
 512   0.0000       2.528435        68.8022 
 513   0.0000       2.536529        69.0225 
 514   0.0000       2.545857        69.2763 
 515   0.0000       2.560689        69.6799 
 516   0.0000       2.568507        69.8926 
 517   0.0000       2.577826        70.1462 
 518   0.0000       2.583677        70.3054 
 519   0.0000       2.586256        70.3756 
 520   0.0000       2.592086        70.5343 
 521   0.0000       2.608350        70.9768 
 522   0.0000       2.610708        71.0410 
 523   0.0000       2.612277        71.0837 
 524   0.0000       2.617708        71.2314 
 525   0.0000       2.628615        71.5282 
 526   0.0000       2.638898        71.8081 
 527   0.0000       2.642839        71.9153 
 528   0.0000       2.645738        71.9942 
 529   0.0000       2.653721        72.2114 
 530   0.0000       2.659953        72.3810 
 531   0.0000       2.663710        72.4832 
 532   0.0000       2.673014        72.7364 
 533   0.0000       2.677981        72.8716 
 534   0.0000       2.686438        73.1017 
 535   0.0000       2.690590        73.2147 
 536   0.0000       2.695971        73.3611 
 537   0.0000       2.699798        73.4652 
 538   0.0000       2.705735        73.6268 
 539   0.0000       2.709819        73.7379 
 540   0.0000       2.724338        74.1330 
 541   0.0000       2.728553        74.2477 
 542   0.0000       2.737454        74.4899 
 543   0.0000       2.744107        74.6709 
 544   0.0000       2.748500        74.7905 
 545   0.0000       2.750385        74.8418 
 546   0.0000       2.763459        75.1975 
 547   0.0000       2.765150        75.2436 
 548   0.0000       2.779080        75.6226 
 549   0.0000       2.786122        75.8142 
 550   0.0000       2.793211        76.0071 
 551   0.0000       2.804948        76.3265 
 552   0.0000       2.809472        76.4496 
 553   0.0000       2.824551        76.8599 
 554   0.0000       2.829510        76.9949 
 555   0.0000       2.841449        77.3197 
 556   0.0000       2.843455        77.3743 
 557   0.0000       2.860703        77.8437 
 558   0.0000       2.866111        77.9908 
 559   0.0000       2.873695        78.1972 
 560   0.0000       2.886126        78.5355 
 561   0.0000       2.895610        78.7936 
 562   0.0000       2.899759        78.9065 
 563   0.0000       2.900858        78.9364 
 564   0.0000       2.908735        79.1507 
 565   0.0000       2.915669        79.3394 
 566   0.0000       2.919372        79.4401 
 567   0.0000       2.926854        79.6437 
 568   0.0000       2.929020        79.7027 
 569   0.0000       2.938059        79.9487 
 570   0.0000       2.940812        80.0236 
 571   0.0000       2.944586        80.1263 
 572   0.0000       2.951797        80.3225 
 573   0.0000       2.959823        80.5409 
 574   0.0000       2.961632        80.5901 
 575   0.0000       2.969760        80.8113 
 576   0.0000       2.972945        80.8980 
 577   0.0000       2.975307        80.9622 
 578   0.0000       2.985710        81.2453 
 579   0.0000       2.989662        81.3528 
 580   0.0000       2.996284        81.5330 
 581   0.0000       3.001205        81.6669 
 582   0.0000       3.006933        81.8228 
 583   0.0000       3.015120        82.0456 
 584   0.0000       3.024784        82.3086 
 585   0.0000       3.027948        82.3947 
 586   0.0000       3.035214        82.5924 
 587   0.0000       3.044046        82.8327 
 588   0.0000       3.049414        82.9788 
 589   0.0000       3.058583        83.2283 
 590   0.0000       3.062320        83.3300 
 591   0.0000       3.068192        83.4898 
 592   0.0000       3.071422        83.5776 
 593   0.0000       3.072778        83.6145 
 594   0.0000       3.083027        83.8934 
 595   0.0000       3.095298        84.2274 
 596   0.0000       3.098343        84.3102 
 597   0.0000       3.103438        84.4488 
 598   0.0000       3.112629        84.6989 
 599   0.0000       3.119065        84.8741 
 600   0.0000       3.126388        85.0733 
 601   0.0000       3.130106        85.1745 
 602   0.0000       3.133168        85.2578 
 603   0.0000       3.146613        85.6237 
 604   0.0000       3.148713        85.6808 
 605   0.0000       3.158835        85.9563 
 606   0.0000       3.165671        86.1423 
 607   0.0000       3.171298        86.2954 
 608   0.0000       3.179198        86.5104 
 609   0.0000       3.181669        86.5776 
 610   0.0000       3.182921        86.6117 
 611   0.0000       3.190665        86.8224 
 612   0.0000       3.192759        86.8794 
 613   0.0000       3.198193        87.0272 
 614   0.0000       3.202803        87.1527 
 615   0.0000       3.212108        87.4059 
 616   0.0000       3.216054        87.5133 
 617   0.0000       3.219951        87.6193 
 618   0.0000       3.223940        87.7279 
 619   0.0000       3.228565        87.8537 
 620   0.0000       3.233459        87.9869 
 621   0.0000       3.234612        88.0183 
 622   0.0000       3.238761        88.1312 
 623   0.0000       3.242647        88.2369 
 624   0.0000       3.260410        88.7203 
 625   0.0000       3.265996        88.8723 
 626   0.0000       3.268972        88.9533 
 627   0.0000       3.277967        89.1980 
 628   0.0000       3.279422        89.2376 
 629   0.0000       3.288655        89.4889 
 630   0.0000       3.299953        89.7963 
 631   0.0000       3.302751        89.8724 
 632   0.0000       3.305365        89.9436 
 633   0.0000       3.309758        90.0631 
 634   0.0000       3.317468        90.2729 
 635   0.0000       3.319887        90.3387 
 636   0.0000       3.331987        90.6680 
 637   0.0000       3.341979        90.9399 
 638   0.0000       3.352773        91.2336 
 639   0.0000       3.362300        91.4928 
 640   0.0000       3.381088        92.0041 
 641   0.0000       3.382760        92.0496 
 642   0.0000       3.387748        92.1853 
 643   0.0000       3.397394        92.4478 
 644   0.0000       3.416655        92.9719 
 645   0.0000       3.425094        93.2015 
 646   0.0000       3.435564        93.4865 
 647   0.0000       3.447736        93.8177 
 648   0.0000       3.468310        94.3775 
 649   0.0000       3.468534        94.3836 
 650   0.0000       3.475127        94.5630 
 651   0.0000       3.488876        94.9371 
 652   0.0000       3.499824        95.2351 
 653   0.0000       3.509266        95.4920 
 654   0.0000       3.521597        95.8275 
 655   0.0000       3.534638        96.1824 
 656   0.0000       3.535239        96.1987 
 657   0.0000       3.551174        96.6324 
 658   0.0000       3.562754        96.9475 
 659   0.0000       3.599459        97.9462 
 660   0.0000       3.634598        98.9024 
 661   0.0000       3.652981        99.4027 
 662   0.0000       3.664316        99.7111 
 663   0.0000       3.679718       100.1302 
 664   0.0000       3.681221       100.1711 
 665   0.0000       3.711080       100.9836 
 666   0.0000       3.718072       101.1739 
 667   0.0000       3.727559       101.4320 
 668   0.0000       3.729774       101.4923 
 669   0.0000       3.740089       101.7730 
 670   0.0000       3.759646       102.3052 
 671   0.0000       3.769320       102.5684 
 672   0.0000       3.779459       102.8443 
 673   0.0000       3.784029       102.9687 
 674   0.0000       3.813440       103.7690 
 675   0.0000       3.825759       104.1042 
 676   0.0000       3.832742       104.2942 
 677   0.0000       3.842724       104.5658 
 678   0.0000       3.852559       104.8335 
 679   0.0000       3.872657       105.3804 
 680   0.0000       3.880049       105.5815 
 681   0.0000       3.899440       106.1092 
 682   0.0000       3.910964       106.4227 
 683   0.0000       3.913167       106.4827 
 684   0.0000       3.928807       106.9083 
 685   0.0000       3.944740       107.3418 
 686   0.0000       3.952814       107.5615 
 687   0.0000       3.963288       107.8465 
 688   0.0000       3.966371       107.9305 
 689   0.0000       3.979314       108.2826 
 690   0.0000       3.984261       108.4173 
 691   0.0000       3.989807       108.5682 
 692   0.0000       3.991863       108.6241 
 693   0.0000       3.993718       108.6746 
 694   0.0000       4.009067       109.0922 
 695   0.0000       4.022163       109.4486 
 696   0.0000       4.026232       109.5594 
 697   0.0000       4.031032       109.6900 
 698   0.0000       4.034954       109.7967 
 699   0.0000       4.036879       109.8491 
 700   0.0000       4.044726       110.0626 
 701   0.0000       4.051843       110.2563 
 702   0.0000       4.059503       110.4647 
 703   0.0000       4.070680       110.7688 
 704   0.0000       4.079595       111.0114 
 705   0.0000       4.085786       111.1799 
 706   0.0000       4.096907       111.4825 
 707   0.0000       4.118133       112.0601 
 708   0.0000       4.126214       112.2800 
 709   0.0000       4.152719       113.0012 
 710   0.0000       4.167409       113.4010 
 711   0.0000       4.182392       113.8087 
 712   0.0000       4.186985       113.9337 
 713   0.0000       4.233126       115.1892 
 714   0.0000       4.254588       115.7732 
 715   0.0000       4.292329       116.8002 
 716   0.0000       4.353339       118.4604 
 717   0.0000       4.366027       118.8056 
 718   0.0000       4.372413       118.9794 
 719   0.0000       4.391298       119.4933 
 720   0.0000       4.398765       119.6965 
 721   0.0000       4.414412       120.1223 
 722   0.0000       4.424393       120.3939 
 723   0.0000       4.459929       121.3608 
 724   0.0000       4.478172       121.8572 
 725   0.0000       4.488748       122.1450 
 726   0.0000       4.494572       122.3035 
 727   0.0000       4.510036       122.7243 
 728   0.0000       4.512264       122.7850 
 729   0.0000       4.528275       123.2206 
 730   0.0000       4.555597       123.9641 
 731   0.0000       4.569919       124.3538 
 732   0.0000       4.579696       124.6199 
 733   0.0000       4.597525       125.1050 
 734   0.0000       4.652274       126.5948 
 735   0.0000       4.664029       126.9147 
 736   0.0000       4.670395       127.0879 
 737   0.0000       4.674544       127.2008 
 738   0.0000       4.692266       127.6830 
 739   0.0000       4.717190       128.3613 
 740   0.0000       4.723555       128.5345 
 741   0.0000       4.758886       129.4959 
 742   0.0000       4.777180       129.9937 
 743   0.0000       4.848583       131.9366 
 744   0.0000       4.856993       132.1655 
 745   0.0000       4.861758       132.2952 
 746   0.0000       4.884497       132.9139 
 747   0.0000       4.893542       133.1601 
 748   0.0000       4.896809       133.2490 
 749   0.0000       4.937239       134.3491 
 750   0.0000       4.956838       134.8824 
 751   0.0000       4.984698       135.6405 
 752   0.0000       5.017837       136.5423 
 753   0.0000       5.019576       136.5896 
 754   0.0000       5.070661       137.9797 
 755   0.0000       5.081431       138.2728 
 756   0.0000       5.092395       138.5711 
 757   0.0000       5.125581       139.4741 
 758   0.0000       5.141851       139.9169 
 759   0.0000       5.159305       140.3918 
 760   0.0000       5.166206       140.5796 
 761   0.0000       5.209918       141.7691 
 762   0.0000       5.251291       142.8949 
 763   0.0000       5.283941       143.7833 
 764   0.0000       5.356296       145.7522 
 765   0.0000       5.363733       145.9546 
 766   0.0000       5.397835       146.8826 
 767   0.0000       5.475819       149.0046 
 768   0.0000       5.541605       150.7947 
 769   0.0000       5.591477       152.1518 
 770   0.0000       5.614737       152.7848 
 771   0.0000       5.700617       155.1217 
 772   0.0000       5.795118       157.6932 
 773   0.0000       5.973617       162.5504 
 774   0.0000       8.855486       240.9700 
 775   0.0000       9.092233       247.4122 
 776   0.0000       9.277401       252.4509 
 777   0.0000      20.036200       545.2127 
 778   0.0000      21.759562       592.1078 
 779   0.0000      21.828468       593.9828 
 780   0.0000      21.849071       594.5435 
 781   0.0000      21.960337       597.5712 
 782   0.0000      22.166382       603.1779 
 783   0.0000      22.175675       603.4308 
 784   0.0000      22.194327       603.9383 
 785   0.0000      22.201956       604.1459 
 786   0.0000      22.240803       605.2030 
 787   0.0000      22.255458       605.6018 
 788   0.0000      22.301507       606.8549 
 789   0.0000      22.323792       607.4613 
 790   0.0000      22.411172       609.8390 
 791   0.0000      22.427797       610.2914 
 792   0.0000      22.470051       611.4412 
 793   0.0000      22.624677       615.6488 
 794   0.0000      22.803575       620.5168 
 795   0.0000      22.851404       621.8183 
 796   0.0000      32.163772       875.2207 
 797   0.0000      32.343704       880.1169 

                 SPIN DOWN ORBITALS
  NO   OCC          E(Eh)            E(eV) 
   0   1.0000    -214.700853     -5842.3072 
   1   1.0000     -88.279239     -2402.2002 
   2   1.0000     -24.393035      -663.7682 
   3   1.0000     -20.768490      -565.1393 
   4   1.0000     -20.766828      -565.0941 
   5   1.0000     -20.761017      -564.9360 
   6   1.0000     -14.172288      -385.6476 
   7   1.0000     -14.144457      -384.8902 
   8   1.0000     -10.092825      -274.6397 
   9   1.0000     -10.088162      -274.5129 
  10   1.0000     -10.086397      -274.4648 
  11   1.0000     -10.073215      -274.1061 
  12   1.0000     -10.063077      -273.8302 
  13   1.0000     -10.054479      -273.5963 
  14   1.0000     -10.052294      -273.5368 
  15   1.0000     -10.052219      -273.5348 
  16   1.0000     -10.048803      -273.4418 
  17   1.0000     -10.045787      -273.3598 
  18   1.0000     -10.041853      -273.2527 
  19   1.0000     -10.041175      -273.2343 
  20   1.0000     -10.037570      -273.1362 
  21   1.0000     -10.034553      -273.0541 
  22   1.0000     -10.028621      -272.8926 
  23   1.0000     -10.024133      -272.7705 
  24   1.0000     -10.013534      -272.4821 
  25   1.0000      -9.995484      -271.9909 
  26   1.0000      -7.858590      -213.8431 
  27   1.0000      -5.879375      -159.9859 
  28   1.0000      -5.875508      -159.8807 
  29   1.0000      -5.871993      -159.7851 
  30   1.0000      -2.806047       -76.3564 
  31   1.0000      -1.805403       -49.1275 
  32   1.0000      -1.800497       -48.9940 
  33   1.0000      -1.788201       -48.6594 
  34   1.0000      -1.021815       -27.8050 
  35   1.0000      -0.995756       -27.0959 
  36   1.0000      -0.945349       -25.7243 
  37   1.0000      -0.920238       -25.0409 
  38   1.0000      -0.879128       -23.9223 
  39   1.0000      -0.838891       -22.8274 
  40   1.0000      -0.829461       -22.5708 
  41   1.0000      -0.823446       -22.4071 
  42   1.0000      -0.815811       -22.1993 
  43   1.0000      -0.791118       -21.5274 
  44   1.0000      -0.771836       -21.0027 
  45   1.0000      -0.726267       -19.7627 
  46   1.0000      -0.722032       -19.6475 
  47   1.0000      -0.701771       -19.0962 
  48   1.0000      -0.689779       -18.7698 
  49   1.0000      -0.676217       -18.4008 
  50   1.0000      -0.664771       -18.0893 
  51   1.0000      -0.644042       -17.5253 
  52   1.0000      -0.619578       -16.8596 
  53   1.0000      -0.611412       -16.6374 
  54   1.0000      -0.599566       -16.3150 
  55   1.0000      -0.592828       -16.1317 
  56   1.0000      -0.569544       -15.4981 
  57   1.0000      -0.559518       -15.2252 
  58   1.0000      -0.554599       -15.0914 
  59   1.0000      -0.546413       -14.8687 
  60   1.0000      -0.531923       -14.4744 
  61   1.0000      -0.526792       -14.3347 
  62   1.0000      -0.521707       -14.1964 
  63   1.0000      -0.516968       -14.0674 
  64   1.0000      -0.505194       -13.7470 
[...]
     89       0.000828  -0.003604  -0.000597   0.846413  -0.188197   0.187573
     90      -0.000080  -0.000001  -0.000011   0.005175   0.056276   0.033473
     91       0.000021  -0.000014   0.000014  -0.000164  -0.000377   0.002203
     92      -0.000020  -0.000031   0.000016   0.004366   0.050239   0.034423
     93       0.000454   0.000135  -0.000113  -0.057606  -0.628879  -0.370054
     94       0.000049  -0.000011   0.000004  -0.000028  -0.004356  -0.004850
     95       0.000545   0.000153  -0.000076  -0.052118  -0.577768  -0.344280
     96      -0.000183  -0.000350   0.000060   0.213089   0.345540  -0.611040
     97       0.000147   0.000249  -0.000039  -0.161893  -0.256908   0.458361
     98       0.000102   0.000187  -0.000036  -0.118242  -0.181226   0.328310
     99      -0.043391  -0.000195  -0.007472   0.001851  -0.001960   0.000799
    100      -0.020049  -0.000104  -0.003565   0.000612  -0.001476  -0.000031
    101      -0.088985  -0.000403  -0.015396   0.003122  -0.005243   0.000837
    102      -0.000015   0.000067   0.000024  -0.000126   0.000014  -0.000020
    103       0.000024  -0.000035  -0.000000  -0.000049  -0.000007   0.000003
    104       0.000008  -0.000019   0.000001  -0.000108  -0.000000  -0.000008
    105      -0.000026  -0.000480  -0.000292   0.000999  -0.000116   0.000094
    106      -0.000008  -0.000100  -0.000083   0.000050  -0.000012  -0.000031
    107       0.000077  -0.000012   0.000027   0.000025   0.000019   0.000007
    108       0.000199  -0.000316  -0.000027  -0.000106  -0.000091   0.000008
    109      -0.000275   0.000471   0.000058   0.000181   0.000121  -0.000015
    110      -0.000081   0.000164   0.000017   0.000167  -0.000021  -0.000008
    111      -0.000070   0.000057  -0.000014   0.000479  -0.000043   0.000067
    112      -0.000067   0.000036  -0.000034   0.000287   0.000044   0.000025
    113      -0.000099   0.000057  -0.000040   0.001346  -0.000076   0.000182


-----------
IR SPECTRUM
-----------

 Mode    freq (cm**-1)   T**2         TX         TY         TZ
-------------------------------------------------------------------
   6:        26.69    0.019487  (  0.045482   0.093070  -0.093575)
   7:        30.46    0.023307  (  0.086757   0.125453   0.006451)
   8:        54.38    0.478364  ( -0.020331   0.505755  -0.471341)
   9:        66.06    0.232673  (  0.183811   0.353894  -0.271378)
  10:        72.13    0.404647  (  0.208526   0.424371  -0.425526)
  11:        79.42    0.110236  ( -0.232126  -0.237225   0.008828)
  12:        96.92    0.236185  (  0.335582   0.273632  -0.220669)
  13:       117.74    0.151998  ( -0.284458   0.266581  -0.004105)
  14:       133.93    0.491751  (  0.084707   0.695949  -0.015184)
  15:       153.08    0.700659  ( -0.475845   0.071802   0.684890)
  16:       180.99    6.861946  (  1.701647   1.805180  -0.841232)
  17:       189.87    2.909144  ( -0.756043  -1.386809   0.643663)
  18:       210.49    0.443439  (  0.243083   0.471467   0.402577)
  19:       219.95    1.256067  ( -0.319969   1.072975  -0.049108)
  20:       253.54    1.375631  (  0.538503  -0.566106  -0.874740)
  21:       274.74    0.592133  ( -0.320819  -0.369390  -0.593935)
  22:       298.45    2.878859  (  0.623290  -0.372684  -1.533452)
  23:       310.09    3.614560  (  1.898921  -0.028280  -0.088652)
  24:       345.10    4.160447  ( -1.729477  -1.058382  -0.221774)
  25:       375.48    9.500403  (  1.472958   2.137255  -1.662209)
  26:       386.83    2.941909  (  1.118268   1.223372  -0.441301)
  27:       394.84    4.355705  (  1.224178   1.624927  -0.465519)
  28:       417.60    2.120182  (  1.295578  -0.358779  -0.559408)
  29:       439.50    3.774864  ( -1.516560  -1.097888   0.519182)
  30:       447.60    6.667648  ( -2.422458  -0.788352  -0.421719)
  31:       466.60   13.471400  (  1.301115   2.816392  -1.961233)
  32:       481.29   28.737169  (  1.367559  -3.171623   4.099727)
  33:       532.37    0.428141  ( -0.484916   0.014842   0.439064)
  34:       573.64    8.705956  ( -1.170312  -2.371086   1.309304)
  35:       578.86    1.619012  (  0.359038   1.198062  -0.233987)
  36:       581.49    3.632715  (  1.887231   0.019753   0.265862)
  37:       605.28    0.037995  (  0.047045  -0.051137  -0.182116)
  38:       608.12    2.374684  ( -1.049428  -1.126395  -0.067964)
  39:       623.60    5.756355  (  2.148596  -0.631557  -0.860829)
  40:       668.15    8.169964  (  1.399957   2.165514  -1.233139)
  41:       670.17    1.198483  ( -0.254849  -0.426131  -0.975678)
  42:       683.88    5.120940  (  2.209806  -0.158140  -0.461181)
  43:       688.57    0.231348  (  0.239599  -0.133246  -0.395203)
  44:       715.08   11.863245  ( -1.717983  -2.461112   1.689588)
  45:       721.40   63.540143  (  7.272695   3.108766  -0.991777)
  46:       743.31    5.432476  ( -1.612755  -1.336476   1.022412)
  47:       747.14   91.295501  ( -1.849165  -8.453522   4.051427)
  48:       779.51    5.935303  (  2.252599   0.103806  -0.922130)
  49:       818.42    0.872935  ( -0.317674  -0.804720  -0.352765)
  50:       822.07    1.580163  (  0.513756   0.939873  -0.657919)
  51:       843.65    0.182279  (  0.155104   0.392411  -0.065085)
  52:       879.09    0.218582  ( -0.413037  -0.214576  -0.044040)
  53:       882.71    1.396917  ( -0.885179  -0.382635  -0.683348)
  54:       892.17   14.141406  (  1.494289  -0.829331  -3.349734)
  55:       893.71    6.195568  ( -1.679529  -0.860515   1.623042)
  56:       896.53   10.678115  (  0.067805   2.908452   1.488094)
  57:       927.23    0.480682  ( -0.221724  -0.610112   0.243484)
  58:       949.27    0.085980  ( -0.189852   0.221883  -0.026537)
  59:       966.72    0.176399  ( -0.331887   0.230477   0.114589)
  60:       975.32   52.434672  ( -6.398291   2.968247   1.638918)
  61:       978.39    0.389918  ( -0.513288  -0.304756   0.183240)
  62:       987.10    4.600319  ( -0.493200  -2.045644  -0.415228)
  63:      1017.05    1.821802  (  0.002137  -1.283145  -0.418733)
  64:      1027.60    7.336477  (  2.245872  -1.209845  -0.910391)
  65:      1039.19    1.736583  ( -0.097984  -0.663060  -1.134608)
  66:      1047.60    2.452132  (  1.344691  -0.618413   0.511375)
  67:      1050.52   98.788140  ( -7.826548   4.781073   3.830747)
  68:      1074.65    3.259445  ( -0.399626  -0.714685   1.609027)
  69:      1078.89    6.913658  ( -2.101472   1.201591   1.026476)
  70:      1120.27    2.003008  (  1.292864   0.261619   0.512899)
  71:      1125.71    5.390201  ( -0.096093  -2.046135   1.092840)
  72:      1160.80    0.315719  ( -0.488664   0.062527   0.270217)
  73:      1161.05    0.772018  (  0.350299  -0.063862  -0.803263)
  74:      1168.79    1.667344  ( -1.290230   0.049865  -0.012806)
  75:      1178.55   17.278482  (  0.191459   1.944953   3.668648)
  76:      1205.77   22.532674  ( -3.906923   2.290659   1.421798)
  77:      1251.84   50.441203  (  6.073621  -2.884015  -2.287965)
  78:      1264.11   20.122376  (  3.324779  -2.112706  -2.145855)
  79:      1277.63  142.785430  ( -7.165823   5.923518   7.506553)
  80:      1291.68    2.392316  ( -0.180671   0.113470  -1.531926)
  81:      1314.49   10.976671  ( -0.477024  -1.229002  -3.039519)
  82:      1334.92    3.989261  ( -0.515654  -1.178863  -1.527627)
  83:      1335.83    2.548780  (  1.107235  -0.308713   1.107929)
  84:      1343.29    3.176571  ( -1.650040   0.649544   0.178974)
  85:      1381.37   84.030324  (  1.752809  -4.214211  -7.949743)
  86:      1389.70    9.131520  ( -0.414239  -2.621826  -1.444284)
  87:      1418.64   35.877618  ( -5.510198   2.089246   1.072559)
  88:      1427.18   13.159850  ( -0.026025   0.011503   3.627539)
  89:      1436.26    5.510365  ( -2.245899   0.640101  -0.237848)
  90:      1454.47   15.031152  (  1.203166   3.684215   0.100512)
  91:      1456.45  148.571603  (  8.959260  -5.981817  -5.702730)
  92:      1473.28  103.829890  (  7.331590  -4.830934  -5.171049)
  93:      1555.91   33.752283  ( -5.469191   1.815939   0.736610)
  94:      1558.33    1.219527  (  0.914083   0.330056   0.524445)
  95:      1563.46    8.845464  (  2.049521   1.285365  -1.729960)
  96:      1568.34  124.323272  (  6.070976  -6.094267  -7.094112)
  97:      1590.27  185.036773  ( -9.975881   6.578221   6.499660)
  98:      2887.00    6.154782  ( -1.001797  -2.015332  -1.043849)
  99:      3026.11    4.619731  ( -0.599285  -2.055947  -0.183490)
 100:      3052.23    1.120621  (  0.753827   0.655888   0.349537)
 101:      3078.72    2.239096  (  1.422730  -0.364737  -0.286186)
 102:      3103.41    0.213589  (  0.085672   0.263248   0.370067)
 103:      3115.82    0.264513  ( -0.032045  -0.117335  -0.499718)
 104:      3116.40    0.958621  (  0.412139  -0.511317  -0.726166)
 105:      3121.09    0.507974  ( -0.577412   0.229253   0.349303)
 106:      3123.74    0.366767  (  0.372928   0.319481   0.354434)
 107:      3129.26    0.299162  (  0.216822   0.474038  -0.165645)
 108:      3130.17    0.601730  (  0.758463  -0.017516   0.161732)
 109:      3138.81    0.364555  ( -0.357113  -0.486606   0.015477)
 110:      3140.65    0.419801  (  0.105583   0.408643   0.491593)
 111:      3155.60    0.136322  ( -0.238647  -0.050928  -0.277084)
 112:      3172.52    0.152671  ( -0.001738  -0.171314  -0.351170)
 113:      3188.20    0.583918  ( -0.694316   0.295314  -0.120964)

The first frequency considered to be a vibration is 6
The total number of vibrations considered is 108


--------------------------
THERMOCHEMISTRY AT 298.15K
--------------------------

Temperature         ... 298.15 K
Pressure            ... 1.00 atm
Total Mass          ... 344.40 AMU

Throughout the following assumptions are being made:
  (1) The electronic state is orbitally nondegenerate
      but the spin degeneracy is treated
  (2) There are no thermally accessible electronically excited states
  (3) Hindered rotations indicated by low frequency modes are not
      treated as such but are treated as vibrations and this may
      cause some error
  (4) All equations used are the standard statistical mechanics
      equations for an ideal gas
  (5) All vibrations are strictly harmonic

freq.      26.69  E(vib)   ...       0.56 
freq.      30.46  E(vib)   ...       0.55 
freq.      54.38  E(vib)   ...       0.52 
freq.      66.06  E(vib)   ...       0.50 
freq.      72.13  E(vib)   ...       0.50 
freq.      79.42  E(vib)   ...       0.49 
freq.      96.92  E(vib)   ...       0.46 
freq.     117.74  E(vib)   ...       0.44 
freq.     133.93  E(vib)   ...       0.42 
freq.     153.08  E(vib)   ...       0.40 
freq.     180.99  E(vib)   ...       0.37 
freq.     189.87  E(vib)   ...       0.36 
freq.     210.49  E(vib)   ...       0.34 
freq.     219.95  E(vib)   ...       0.33 
freq.     253.54  E(vib)   ...       0.30 
freq.     274.74  E(vib)   ...       0.28 
freq.     298.45  E(vib)   ...       0.26 
freq.     310.09  E(vib)   ...       0.26 
freq.     345.10  E(vib)   ...       0.23 
freq.     375.48  E(vib)   ...       0.21 
freq.     386.83  E(vib)   ...       0.20 
freq.     394.84  E(vib)   ...       0.20 
freq.     417.60  E(vib)   ...       0.18 
freq.     439.50  E(vib)   ...       0.17 
freq.     447.60  E(vib)   ...       0.17 
freq.     466.60  E(vib)   ...       0.16 
freq.     481.29  E(vib)   ...       0.15 
freq.     532.37  E(vib)   ...       0.13 
freq.     573.64  E(vib)   ...       0.11 
freq.     578.86  E(vib)   ...       0.11 
freq.     581.49  E(vib)   ...       0.11 
freq.     605.28  E(vib)   ...       0.10 
freq.     608.12  E(vib)   ...       0.10 
freq.     623.60  E(vib)   ...       0.09 
freq.     668.15  E(vib)   ...       0.08 
freq.     670.17  E(vib)   ...       0.08 
freq.     683.88  E(vib)   ...       0.07 
freq.     688.57  E(vib)   ...       0.07 
freq.     715.08  E(vib)   ...       0.07 
freq.     721.40  E(vib)   ...       0.07 
freq.     743.31  E(vib)   ...       0.06 
freq.     747.14  E(vib)   ...       0.06 
freq.     779.51  E(vib)   ...       0.05 
freq.     818.42  E(vib)   ...       0.05 
freq.     822.07  E(vib)   ...       0.05 
freq.     843.65  E(vib)   ...       0.04 
freq.     879.09  E(vib)   ...       0.04 
freq.     882.71  E(vib)   ...       0.04 
freq.     892.17  E(vib)   ...       0.03 
freq.     893.71  E(vib)   ...       0.03 
freq.     896.53  E(vib)   ...       0.03 
freq.     927.23  E(vib)   ...       0.03 
freq.     949.27  E(vib)   ...       0.03 
freq.     966.72  E(vib)   ...       0.03 
freq.     975.32  E(vib)   ...       0.03 
freq.     978.39  E(vib)   ...       0.03 
freq.     987.10  E(vib)   ...       0.02 
freq.    1017.05  E(vib)   ...       0.02 
freq.    1027.60  E(vib)   ...       0.02 
freq.    1039.19  E(vib)   ...       0.02 
freq.    1047.60  E(vib)   ...       0.02 
freq.    1050.52  E(vib)   ...       0.02 
freq.    1074.65  E(vib)   ...       0.02 
freq.    1078.89  E(vib)   ...       0.02 
freq.    1120.27  E(vib)   ...       0.01 
freq.    1125.71  E(vib)   ...       0.01 
freq.    1160.80  E(vib)   ...       0.01 
freq.    1161.05  E(vib)   ...       0.01 
freq.    1168.79  E(vib)   ...       0.01 
freq.    1178.55  E(vib)   ...       0.01 
freq.    1205.77  E(vib)   ...       0.01 
freq.    1251.84  E(vib)   ...       0.01 
freq.    1264.11  E(vib)   ...       0.01 
freq.    1277.63  E(vib)   ...       0.01 
freq.    1291.68  E(vib)   ...       0.01 
freq.    1314.49  E(vib)   ...       0.01 
freq.    1334.92  E(vib)   ...       0.01 
freq.    1335.83  E(vib)   ...       0.01 
freq.    1343.29  E(vib)   ...       0.01 
freq.    1381.37  E(vib)   ...       0.01 
freq.    1389.70  E(vib)   ...       0.00 
freq.    1418.64  E(vib)   ...       0.00 
freq.    1427.18  E(vib)   ...       0.00 
freq.    1436.26  E(vib)   ...       0.00 
freq.    1454.47  E(vib)   ...       0.00 
freq.    1456.45  E(vib)   ...       0.00 
freq.    1473.28  E(vib)   ...       0.00 
freq.    1555.91  E(vib)   ...       0.00 
freq.    1558.33  E(vib)   ...       0.00 
freq.    1563.46  E(vib)   ...       0.00 
freq.    1568.34  E(vib)   ...       0.00 
freq.    1590.27  E(vib)   ...       0.00 
freq.    2887.00  E(vib)   ...       0.00 
freq.    3026.11  E(vib)   ...       0.00 
freq.    3052.23  E(vib)   ...       0.00 
freq.    3078.72  E(vib)   ...       0.00 
freq.    3103.41  E(vib)   ...       0.00 
freq.    3115.82  E(vib)   ...       0.00 
freq.    3116.40  E(vib)   ...       0.00 
freq.    3121.09  E(vib)   ...       0.00 
freq.    3123.74  E(vib)   ...       0.00 
freq.    3129.26  E(vib)   ...       0.00 
freq.    3130.17  E(vib)   ...       0.00 
freq.    3138.81  E(vib)   ...       0.00 
freq.    3140.65  E(vib)   ...       0.00 
freq.    3155.60  E(vib)   ...       0.00 
freq.    3172.52  E(vib)   ...       0.00 
freq.    3188.20  E(vib)   ...       0.00 

------------
INNER ENERGY
------------

The inner energy is: U= E(el) + E(ZPE) + E(vib) + E(rot) + E(trans)
    E(el)   - is the total energy from the electronic structure calculation
              = E(kin-el) + E(nuc-el) + E(el-el) + E(nuc-nuc)
    E(ZPE)  - the the zero temperature vibrational energy from the frequency calculation
    E(vib)  - the the finite temperature correction to E(ZPE) due to population
              of excited vibrational states
    E(rot)  - is the rotational thermal energy
    E(trans)- is the translational thermal energy

Summary of contributions to the inner energy U:
Electronic energy                ...  -2248.16868543 Eh
Zero point energy                ...      0.28381490 Eh     178.10 kcal/mol
Thermal vibrational correction   ...      0.01778572 Eh      11.16 kcal/mol
Thermal rotational correction    ...      0.00141627 Eh       0.89 kcal/mol
Thermal translational correction ...      0.00141627 Eh       0.89 kcal/mol
-----------------------------------------------------------------------
Total thermal energy                  -2247.86425226 Eh


Summary of corrections to the electronic energy:
(perhaps to be used in another calculation)
Total thermal correction                  0.02061826 Eh      12.94 kcal/mol
Non-thermal (ZPE) correction              0.28381490 Eh     178.10 kcal/mol
-----------------------------------------------------------------------
Total correction                          0.30443316 Eh     191.03 kcal/mol


--------
ENTHALPY
--------

The enthalpy is H = U + kB*T
                kB is Boltzmann's constant
Total free energy                 ...  -2247.86425226 Eh 
Thermal Enthalpy correction       ...      0.00094421 Eh       0.59 kcal/mol
-----------------------------------------------------------------------
Total Enthalpy                    ...  -2247.86330805 Eh


Note: Only C1 symmetry has been detected, increase convergence thresholds 
      if your molecule has a higher symmetry. Symmetry factor of 1.0 is   
      used for the rotational entropy correction. 
 

Note: Rotational entropy computed according to Herzberg 
Infrared and Raman Spectra, Chapter V,1, Van Nostrand Reinhold, 1945 
Point Group:  C1, Symmetry Number:   1  
Rotational constants in cm-1:     0.012165     0.007884     0.006443 

Vibrational entropy computed according to the QRRHO of S. Grimme
Chem.Eur.J. 2012 18 9955


-------
ENTROPY
-------

The entropy contributions are T*S = T*(S(el)+S(vib)+S(rot)+S(trans))
     S(el)   - electronic entropy
     S(vib)  - vibrational entropy
     S(rot)  - rotational entropy
     S(trans)- translational entropy
The entropies will be listed as mutliplied by the temperature to get
units of energy

Electronic entropy                ...      0.00130891 Eh      0.82 kcal/mol
Vibrational entropy               ...      0.03114869 Eh     19.55 kcal/mol
Rotational entropy                ...      0.01626019 Eh     10.20 kcal/mol
Translational entropy             ...      0.02062265 Eh     12.94 kcal/mol
-----------------------------------------------------------------------
Final entropy term                ...      0.06934045 Eh     43.51 kcal/mol

In case the symmetry of your molecule has not been determined correctly
or in case you have a reason to use a different symmetry number we print 
out the resulting rotational entropy values for sn=1,12 :
 --------------------------------------------------------
|  sn= 1 | S(rot)=       0.01626019 Eh     10.20 kcal/mol|
|  sn= 2 | S(rot)=       0.01560573 Eh      9.79 kcal/mol|
|  sn= 3 | S(rot)=       0.01522290 Eh      9.55 kcal/mol|
|  sn= 4 | S(rot)=       0.01495128 Eh      9.38 kcal/mol|
|  sn= 5 | S(rot)=       0.01474059 Eh      9.25 kcal/mol|
|  sn= 6 | S(rot)=       0.01456845 Eh      9.14 kcal/mol|
|  sn= 7 | S(rot)=       0.01442290 Eh      9.05 kcal/mol|
|  sn= 8 | S(rot)=       0.01429682 Eh      8.97 kcal/mol|
|  sn= 9 | S(rot)=       0.01418561 Eh      8.90 kcal/mol|
|  sn=10 | S(rot)=       0.01408613 Eh      8.84 kcal/mol|
|  sn=11 | S(rot)=       0.01399614 Eh      8.78 kcal/mol|
|  sn=12 | S(rot)=       0.01391399 Eh      8.73 kcal/mol|
 --------------------------------------------------------


-------------------
GIBBS FREE ENERGY
-------------------

The Gibbs free energy is G = H - T*S

Total enthalpy                    ...  -2247.86330805 Eh 
Total entropy correction          ...     -0.06934045 Eh    -43.51 kcal/mol
-----------------------------------------------------------------------
Final Gibbs free energy         ...  -2247.93264850 Eh

For completeness - the Gibbs free energy minus the electronic energy
G-E(el)                           ...      0.23603693 Eh    148.12 kcal/mol


Timings for individual modules:

Sum of individual times         ...    38422.271 sec (= 640.371 min)
GTO integral calculation        ...        0.520 sec (=   0.009 min)   0.0 %
SCF iterations                  ...       83.081 sec (=   1.385 min)   0.2 %
Analytical frequency calculation...    38338.671 sec (= 638.978 min)  99.8 %
                             ****ORCA TERMINATED NORMALLY****
TOTAL RUN TIME: 0 days 10 hours 40 minutes 23 seconds 144 msec
