
                                 *****************
                                 * O   R   C   A *
                                 *****************

           --- An Ab Initio, DFT and Semiempirical electronic structure package ---

                  #######################################################
                  #                        -***-                        #
                  #          Department of theory and spectroscopy      #
                  #               Directorship: Frank Neese             #
                  #        Max Planck Institute fuer Kohlenforschung    #
                  #                Kaiser Wilhelm Platz 1               #
                  #                 D-45470 Muelheim/Ruhr               #
                  #                      Germany                        #
                  #                                                     #
                  #                  All rights reserved                #
                  #                        -***-                        #
                  #######################################################


                         Program Version 4.2.1 -  RELEASE  -


 With contributions from (in alphabetic order):
   Daniel Aravena         : Magnetic Suceptibility
   Michael Atanasov       : Ab Initio Ligand Field Theory (pilot matlab implementation)
   Alexander A. Auer      : GIAO ZORA, VPT2
   Ute Becker             : Parallelization
   Giovanni Bistoni       : ED, misc. LED, open-shell LED, HFLD
   Martin Brehm           : Molecular dynamics
   Dmytro Bykov           : SCF Hessian
   Vijay G. Chilkuri      : MRCI spin determinant printing, contributions to CSF-ICE
   Dipayan Datta          : RHF DLPNO-CCSD density
   Achintya Kumar Dutta   : EOM-CC, STEOM-CC
   Dmitry Ganyushin       : Spin-Orbit,Spin-Spin,Magnetic field MRCI
   Miquel Garcia          : C-PCM Hessian, Gaussian charge scheme
   Yang Guo               : DLPNO-NEVPT2, CIM, IAO-localization
   Andreas Hansen         : Spin unrestricted coupled pair/coupled cluster methods
   Benjamin Helmich-Paris : CASSCF linear response (MC-RPA)
   Lee Huntington         : MR-EOM, pCC
   Robert Izsak           : Overlap fitted RIJCOSX, COSX-SCS-MP3, EOM
   Christian Kollmar      : KDIIS, OOCD, Brueckner-CCSD(T), CCSD density
   Simone Kossmann        : Meta GGA functionals, TD-DFT gradient, OOMP2, MP2 Hessian
   Martin Krupicka        : AUTO-CI
   Lucas Lang             : DCDCAS
   Dagmar Lenk            : GEPOL surface, SMD
   Dimitrios Liakos       : Extrapolation schemes; Compound Job, initial MDCI parallelization
   Dimitrios Manganas     : Further ROCIS development; embedding schemes
   Dimitrios Pantazis     : SARC Basis sets
   Taras Petrenko         : DFT Hessian,TD-DFT gradient, ASA, ECA, R-Raman, ABS, FL, XAS/XES, NRVS
   Peter Pinski           : DLPNO-MP2, DLPNO-MP2 Gradient
   Christoph Reimann      : Effective Core Potentials
   Marius Retegan         : Local ZFS, SOC
   Christoph Riplinger    : Optimizer, TS searches, QM/MM, DLPNO-CCSD(T), (RO)-DLPNO pert. Triples
   Tobias Risthaus        : Range-separated hybrids, TD-DFT gradient, RPA, STAB
   Michael Roemelt        : Original ROCIS implementation
   Masaaki Saitow         : Open-shell DLPNO-CCSD energy and density
   Barbara Sandhoefer     : DKH picture change effects
   Avijit Sen             : IP-ROCIS
   Kantharuban Sivalingam : CASSCF convergence, NEVPT2, FIC-MRCI
   Bernardo de Souza      : ESD, SOC TD-DFT
   Georgi Stoychev        : AutoAux, RI-MP2 NMR
   Willem Van den Heuvel  : Paramagnetic NMR
   Boris Wezisla          : Elementary symmetry handling
   Frank Wennmohs         : Technical directorship


 We gratefully acknowledge several colleagues who have allowed us to
 interface, adapt or use parts of their codes:
   Stefan Grimme, W. Hujo, H. Kruse,             : VdW corrections, initial TS optimization,
                  C. Bannwarth                     DFT functionals, gCP, sTDA/sTD-DF
   Ed Valeev, F. Pavosevic, A. Kumar             : LibInt (2-el integral package), F12 methods
   Garnet Chan, S. Sharma, J. Yang, R. Olivares  : DMRG
   Ulf Ekstrom                                   : XCFun DFT Library
   Mihaly Kallay                                 : mrcc  (arbitrary order and MRCC methods)
   Andreas Klamt, Michael Diedenhofen            : otool_cosmo (COSMO solvation model)
   Jiri Pittner, Ondrej Demel                    : Mk-CCSD
   Frank Weinhold                                : gennbo (NPA and NBO analysis)
   Christopher J. Cramer and Donald G. Truhlar   : smd solvation model
   Lars Goerigk                                  : TD-DFT with DH, B97 family of functionals
   V. Asgeirsson, H. Jonsson                     : NEB implementation
   FAccTs GmbH                                   : IRC, NEB, NEB-TS, Multilevel, MM, QM/MM, CI optimization
   S Lehtola, MJT Oliveira, MAL Marques          : LibXC Library


 Your calculation uses the libint2 library for the computation of 2-el integrals
 For citations please refer to: http://libint.valeyev.net

 Your ORCA version has been built with support for libXC version: 4.2.3
 For citations please refer to: https://tddft.org/programs/libxc/

 This ORCA versions uses:
   CBLAS   interface :  Fast vector & matrix operations
   LAPACKE interface :  Fast linear algebra routines
   SCALAPACK package :  Parallel linear algebra routines


Your calculation utilizes the atom-pairwise dispersion correction
with the Becke-Johnson damping scheme (D3BJ)
Cite in your paper:
S.Grimme, S.Ehrlich, L.Goerigk, J Comput Chem, (2011), 32, 1456–1465 
S.Grimme, J.Antony, S.Ehrlich and H.Krieg, J.Chem.Phys., 132, (2010), 154104 
   

Your calculation utilizes the SMD solvation module
Please cite in your paper:
A.V. Marenich, C.J. Cramer, D.G. Truhlar J. Phys. Chem. B, 113, (2009), 6378 

----- Orbital basis set information -----
Your calculation utilizes the basis: def2-TZVP
   F. Weigend and R. Ahlrichs, Phys. Chem. Chem. Phys. 7, 3297 (2005).

----- AuxJ basis set information -----
Your calculation utilizes the auxiliary basis: def2/J
   F. Weigend, Phys. Chem. Chem. Phys. 8, 1057 (2006).

================================================================================
                                        WARNINGS
                       Please study these warnings very carefully!
================================================================================


WARNING: your system is open-shell and RHF/RKS was chosen
  ===> : WILL SWITCH to UHF/UKS


INFO   : the flag for use of LIBINT has been found!

================================================================================
                                       INPUT FILE
================================================================================
NAME = IM1_4F_Solv1.inp
|  1> #
|  2> # ORCA calc attempt 1 :-)
|  3> #
|  4> ! BP86 D3BJ RIJCOSX def2-TZVP def2/J Grid6 FinalGrid6 MORead CPCM TightSCF 
|  5> %moinp "IM1_4F.ges"
|  6> %cpcm
|  7> smd true
|  8> SMDsolvent "Toluene"
|  9> end
| 10> * xyz 1 4
| 11>   Cr  0.51630107034940     -2.23283403980234     -1.14395890086108
| 12>   S   -1.30116084670019     -2.72743628834954      0.37017833952086
| 13>   N   0.47964464456523     -0.50302751176783     -0.13945964273830
| 14>   N   2.28719958853963     -1.55560178016894     -1.72088812978905
| 15>   C   -2.74371622997408     -3.20324432258750     -0.57446742211526
| 16>   C   -2.99563434571248     -4.57722902652294     -0.66057847176435
| 17>   C   -3.54760666948941     -2.27119161040051     -1.23627863898317
| 18>   C   -4.06326763807742     -5.02232107619038     -1.44324476034870
| 19>   H   -2.37749828713737     -5.28816833098636     -0.11001664070457
| 20>   C   -4.62248505658234     -2.73145000710588     -1.99737383965853
| 21>   H   -3.34098200954824     -1.20522145111504     -1.15423234147873
| 22>   C   -4.87646794213149     -4.10224092021290     -2.10912776819545
| 23>   H   -4.26881919270953     -6.09054525177718     -1.51429564198211
| 24>   H   -5.71629599553901     -4.45255197703969     -2.70904973792054
| 25>   H   -5.26059828523142     -2.01233321815152     -2.51142087527778
| 26>   C   -1.61102656704592     -1.05734848024344      0.91098595556465
| 27>   C   -0.62973582008639     -0.08875592147695      0.61358835654299
| 28>   C   -0.83474994027542      1.22418551176485      1.07209977888230
| 29>   C   -2.74370194886838     -0.74506619192177      1.66469701972451
| 30>   C   -2.92889610439723      0.56228029558943      2.11047074368540
| 31>   H   -3.47628363512089     -1.51997948218572      1.89073245071343
| 32>   C   -1.97233154183077      1.53972417351066      1.81022716550287
| 33>   H   -0.11755520690411      2.00790182196660      0.83072610518013
| 34>   H   -3.81454015490525      0.81778915080561      2.69095093919747
| 35>   H   -2.11876433617167      2.56484316164277      2.15034459532963
| 36>   C   1.58747345062163      0.22247162790454     -0.31294150008055
| 37>   C   2.57052086230231     -0.30567742980562     -1.15252863862507
| 38>   C   3.35579807085044     -1.88918599594361     -2.48443571032644
| 39>   C   4.34113067341287     -0.88059515585347     -2.42431754436710
| 40>   H   3.38257984772248     -2.81734631878761     -3.05075432267451
| 41>   C   3.84972966972717      0.12165420382937     -1.58186309206171
| 42>   H   4.34494853154937      1.04660930596064     -1.30114556367007
| 43>   H   5.29480969221513     -0.89252544049202     -2.94234558106973
| 44>   H   1.72333278205464      1.18145903991439      0.19251831979836
| 45>   C   -0.59828123737093     -1.58067264424972     -2.70581295439986
| 46>   H   0.05942257649679     -1.49951761446629     -3.58152494505327
| 47>   H   -0.98870960955666     -0.58790679039743     -2.44131850873819
| 48>   H   -1.43073882355840     -2.26882811469304     -2.90209886258084
| 49>   C   1.13940674786780     -4.55257916306272     -1.31420620997388
| 50>   C   0.42292977113594     -4.36211388624943     -2.44816071737471
| 51>   H   2.22550751263612     -4.43937218969622     -1.29483603667683
| 52>   H   0.67591197972339     -4.95771686122951     -0.41128651239071
| 53>   H   0.89656386404671     -4.06424054736104     -3.38472286680802
| 54>   H   -0.64730391089192     -4.57329325259457     -2.48706739095345
| 55> *
| 56> 
| 57>                          ****END OF INPUT****
================================================================================

                       ****************************
                       * Single Point Calculation *
                       ****************************

---------------------------------
CARTESIAN COORDINATES (ANGSTROEM)
---------------------------------
  Cr     0.516301   -2.232834   -1.143959
  S     -1.301161   -2.727436    0.370178
  N      0.479645   -0.503028   -0.139460
  N      2.287200   -1.555602   -1.720888
  C     -2.743716   -3.203244   -0.574467
  C     -2.995634   -4.577229   -0.660578
  C     -3.547607   -2.271192   -1.236279
  C     -4.063268   -5.022321   -1.443245
  H     -2.377498   -5.288168   -0.110017
  C     -4.622485   -2.731450   -1.997374
  H     -3.340982   -1.205221   -1.154232
  C     -4.876468   -4.102241   -2.109128
  H     -4.268819   -6.090545   -1.514296
  H     -5.716296   -4.452552   -2.709050
  H     -5.260598   -2.012333   -2.511421
  C     -1.611027   -1.057348    0.910986
  C     -0.629736   -0.088756    0.613588
  C     -0.834750    1.224186    1.072100
  C     -2.743702   -0.745066    1.664697
  C     -2.928896    0.562280    2.110471
  H     -3.476284   -1.519979    1.890732
  C     -1.972332    1.539724    1.810227
  H     -0.117555    2.007902    0.830726
  H     -3.814540    0.817789    2.690951
  H     -2.118764    2.564843    2.150345
  C      1.587473    0.222472   -0.312942
  C      2.570521   -0.305677   -1.152529
  C      3.355798   -1.889186   -2.484436
  C      4.341131   -0.880595   -2.424318
  H      3.382580   -2.817346   -3.050754
  C      3.849730    0.121654   -1.581863
  H      4.344949    1.046609   -1.301146
  H      5.294810   -0.892525   -2.942346
  H      1.723333    1.181459    0.192518
  C     -0.598281   -1.580673   -2.705813
  H      0.059423   -1.499518   -3.581525
  H     -0.988710   -0.587907   -2.441319
  H     -1.430739   -2.268828   -2.902099
  C      1.139407   -4.552579   -1.314206
  C      0.422930   -4.362114   -2.448161
  H      2.225508   -4.439372   -1.294836
  H      0.675912   -4.957717   -0.411287
  H      0.896564   -4.064241   -3.384723
  H     -0.647304   -4.573293   -2.487067

----------------------------
CARTESIAN COORDINATES (A.U.)
----------------------------
  NO LB      ZA    FRAG     MASS         X           Y           Z
   0 Cr   24.0000    0    52.000    0.975668   -4.219445   -2.161769
   1 S    16.0000    0    32.060   -2.458838   -5.154108    0.699536
   2 N     7.0000    0    14.007    0.906397   -0.950584   -0.263541
   3 N     7.0000    0    14.007    4.322181   -2.939661   -3.252007
   4 C     6.0000    0    12.011   -5.184872   -6.053255   -1.085586
   5 C     6.0000    0    12.011   -5.660929   -8.649709   -1.248312
   6 C     6.0000    0    12.011   -6.704005   -4.291930   -2.336228
   7 C     6.0000    0    12.011   -7.678463   -9.490811   -2.727337
   8 H     1.0000    0     1.008   -4.492821   -9.993190   -0.207901
   9 C     6.0000    0    12.011   -8.735231   -5.161692   -3.774490
  10 H     1.0000    0     1.008   -6.313541   -2.277538   -2.181183
  11 C     6.0000    0    12.011   -9.215189   -7.752112   -3.985674
  12 H     1.0000    0     1.008   -8.066899  -11.509463   -2.861604
  13 H     1.0000    0     1.008  -10.802234   -8.414104   -5.119362
  14 H     1.0000    0     1.008   -9.941090   -3.802759   -4.745898
  15 C     6.0000    0    12.011   -3.044399   -1.998099    1.721514
  16 C     6.0000    0    12.011   -1.190028   -0.167724    1.159514
  17 C     6.0000    0    12.011   -1.577449    2.313375    2.025975
  18 C     6.0000    0    12.011   -5.184845   -1.407971    3.145821
  19 C     6.0000    0    12.011   -5.534812    1.062556    3.988212
  20 H     1.0000    0     1.008   -6.569224   -2.872345    3.572967
  21 C     6.0000    0    12.011   -3.727166    2.909657    3.420834
  22 H     1.0000    0     1.008   -0.222147    3.794385    1.569845
  23 H     1.0000    0     1.008   -7.208436    1.545398    5.085160
  24 H     1.0000    0     1.008   -4.003884    4.846851    4.063562
  25 C     6.0000    0    12.011    2.999890    0.420410   -0.591374
  26 C     6.0000    0    12.011    4.857580   -0.577647   -2.177963
  27 C     6.0000    0    12.011    6.341539   -3.570044   -4.694903
  28 C     6.0000    0    12.011    8.203548   -1.664084   -4.581296
  29 H     1.0000    0     1.008    6.392150   -5.324013   -5.765090
  30 C     6.0000    0    12.011    7.274935    0.229893   -2.989288
  31 H     1.0000    0     1.008    8.210763    1.977805   -2.458809
  32 H     1.0000    0     1.008   10.005740   -1.686629   -5.560227
  33 H     1.0000    0     1.008    3.256627    2.232634    0.363807
  34 C     6.0000    0    12.011   -1.130588   -2.987038   -5.113245
  35 H     1.0000    0     1.008    0.112292   -2.833678   -6.768101
  36 H     1.0000    0     1.008   -1.868390   -1.110983   -4.613423
  37 H     1.0000    0     1.008   -2.703705   -4.287464   -5.484172
  38 C     6.0000    0    12.011    2.153167   -8.603128   -2.483490
  39 C     6.0000    0    12.011    0.799221   -8.243201   -4.626353
  40 H     1.0000    0     1.008    4.205600   -8.389198   -2.446885
  41 H     1.0000    0     1.008    1.277289   -9.368727   -0.777219
  42 H     1.0000    0     1.008    1.694260   -7.680302   -6.396199
  43 H     1.0000    0     1.008   -1.223227   -8.642272   -4.699876

--------------------------------
INTERNAL COORDINATES (ANGSTROEM)
--------------------------------
 Cr     0   0   0     0.000000000000     0.00000000     0.00000000
 S      1   0   0     2.416694185640     0.00000000     0.00000000
 N      1   2   0     2.000648164359    81.29201612     0.00000000
 N      1   2   3     1.981810392143   157.56872362    43.65959506
 C      2   1   3     1.788774701922   109.27211435   124.63634903
 C      5   2   1     1.399539858867   116.02694234   100.38589019
 C      5   2   1     1.397482087116   122.45175676   282.89064911
 C      6   5   2     1.396608140793   119.00968371   183.46644164
 H      6   5   2     1.091166903531   120.43961234     4.53695599
 C      7   5   2     1.395158501128   118.78394581   177.34525012
 H      7   5   2     1.088906665200   120.53507494   357.01865371
 C      8   6   5     1.396868786993   120.14947691   358.94493796
 H      8   6   5     1.090138779560   119.53492787   180.15885491
 H     12   8   6     1.089924477009   119.95096361   180.76065258
 H     10   7   5     1.090211815916   119.37750695   179.52635516
 C      2   1   3     1.782605657177    97.41534094    15.17726159
 C      3   1   2     1.403362838005   122.62519387   341.32189465
 C     17   3   1     1.405730671578   124.47378768   195.57311098
 C     16   2   1     1.395906199006   120.96061859   169.58561824
 C     19  16   2     1.393616133167   119.36712362   177.72703004
 H     19  16   2     1.090072727171   119.88403560   357.18586560
 C     18  17   3     1.392296156043   120.24867169   179.76529793
 H     18  17   3     1.089422227976   120.24000722     1.34246388
 H     20  19  16     1.089315113581   119.90303499   179.40110155
 H     22  18  17     1.089950168200   119.23246919   180.50963613
 C      3   1   2     1.335563409210   112.90850680   164.01427235
 C     26   3   1     1.396506428192   117.16497894     0.66458029
 C      4   1   2     1.355059427905   141.68225161   136.10846607
 C     28   4   1     1.411293737768   110.52686595   180.94221647
 H     28   4   1     1.087619243654   121.52723905     1.58047226
 C     29  28   4     1.398466384872   107.00833059   359.94935673
 H     31  29  28     1.086087470147   127.28893874   179.57246723
 H     29  28   4     1.085356646179   125.82316989   180.12866290
 H     26   3   1     1.092521964925   121.32381560   181.51608247
 C      1   2   3     2.026572547699    97.76492665   265.42158963
 H     35   1   2     1.098194853480   107.99610307   191.51748222
 H     35   1   2     1.099079463082   107.49258411    73.16608859
 H     35   1   2     1.097757597128   110.67945375   313.17504534
 C      1   2   3     2.407999640471    92.39217916   151.36946969
 C     39   1   2     1.354794857059    77.69567981    99.69284597
 H     39   1   2     1.092156533498    98.98759377   220.40686016
 H     39   1   2     1.092807364020   100.89311533   339.73480323
 H     40  39   1     1.090965828859   121.82492648    91.54489661
 H     40  39   1     1.091563368827   121.40915393   266.82086413

---------------------------
INTERNAL COORDINATES (A.U.)
---------------------------
 Cr     0   0   0     0.000000000000     0.00000000     0.00000000
 S      1   0   0     4.566890160299     0.00000000     0.00000000
 N      1   2   0     3.780677120970    81.29201612     0.00000000
 N      1   2   3     3.745078890510   157.56872362    43.65959506
 C      2   1   3     3.380294301919   109.27211435   124.63634903
 C      5   2   1     2.644747046765   116.02694234   100.38589019
 C      5   2   1     2.640858421711   122.45175676   282.89064911
 C      6   5   2     2.639206902504   119.00968371   183.46644164
 H      6   5   2     2.062006614073   120.43961234     4.53695599
 C      7   5   2     2.636467480543   118.78394581   177.34525012
 H      7   5   2     2.057735382630   120.53507494   357.01865371
 C      8   6   5     2.639699452440   120.14947691   358.94493796
 H      8   6   5     2.060063741336   119.53492787   180.15885491
 H     12   8   6     2.059658768205   119.95096361   180.76065258
 H     10   7   5     2.060201760045   119.37750695   179.52635516
 C      2   1   3     3.368636496844    97.41534094    15.17726159
 C      3   1   2     2.651971430353   122.62519387   341.32189465
 C     17   3   1     2.656445987336   124.47378768   195.57311098
 C     16   2   1     2.637880424764   120.96061859   169.58561824
 C     19  16   2     2.633552827500   119.36712362   177.72703004
 H     19  16   2     2.059938920410   119.88403560   357.18586560
 C     18  17   3     2.631058432233   120.24867169   179.76529793
 H     18  17   3     2.058709655081   120.24000722     1.34246388
 H     20  19  16     2.058507238209   119.90303499   179.40110155
 H     22  18  17     2.059707317520   119.23246919   180.50963613
 C      3   1   2     2.523849077893   112.90850680   164.01427235
 C     26   3   1     2.639014693543   117.16497894     0.66458029
 C      4   1   2     2.560691213929   141.68225161   136.10846607
 C     28   4   1     2.666958658900   110.52686595   180.94221647
 H     28   4   1     2.055302508488   121.52723905     1.58047226
 C     29  28   4     2.642718474903   107.00833059   359.94935673
 H     31  29  28     2.052407876060   127.28893874   179.57246723
 H     29  28   4     2.051026818910   125.82316989   180.12866290
 H     26   3   1     2.064567309001   121.32381560   181.51608247
 C      1   2   3     3.829667105674    97.76492665   265.42158963
 H     35   1   2     2.075287514759   107.99610307   191.51748222
 H     35   1   2     2.076959184642   107.49258411    73.16608859
 H     35   1   2     2.074461220004   110.67945375   313.17504534
 C      1   2   3     4.550459851070    92.39217916   151.36946969
 C     39   1   2     2.560191247486    77.69567981    99.69284597
 H     39   1   2     2.063876743684    98.98759377   220.40686016
 H     39   1   2     2.065106635131   100.89311533   339.73480323
 H     40  39   1     2.061626638011   121.82492648    91.54489661
 H     40  39   1     2.062755824904   121.40915393   266.82086413

---------------------
BASIS SET INFORMATION
---------------------
There are 5 groups of distinct atoms

 Group   1 Type Cr  : 17s11p7d1f contracted to 6s4p4d1f pattern {842111/6311/4111/1}
 Group   2 Type S   : 14s9p3d1f contracted to 5s5p2d1f pattern {73211/51111/21/1}
 Group   3 Type N   : 11s6p2d1f contracted to 5s3p2d1f pattern {62111/411/11/1}
 Group   4 Type C   : 11s6p2d1f contracted to 5s3p2d1f pattern {62111/411/11/1}
 Group   5 Type H   : 5s1p contracted to 3s1p pattern {311/1}

Atom   0Cr   basis set group =>   1
Atom   1S    basis set group =>   2
Atom   2N    basis set group =>   3
Atom   3N    basis set group =>   3
Atom   4C    basis set group =>   4
Atom   5C    basis set group =>   4
Atom   6C    basis set group =>   4
Atom   7C    basis set group =>   4
Atom   8H    basis set group =>   5
Atom   9C    basis set group =>   4
Atom  10H    basis set group =>   5
Atom  11C    basis set group =>   4
Atom  12H    basis set group =>   5
Atom  13H    basis set group =>   5
Atom  14H    basis set group =>   5
Atom  15C    basis set group =>   4
Atom  16C    basis set group =>   4
Atom  17C    basis set group =>   4
Atom  18C    basis set group =>   4
Atom  19C    basis set group =>   4
Atom  20H    basis set group =>   5
Atom  21C    basis set group =>   4
Atom  22H    basis set group =>   5
Atom  23H    basis set group =>   5
Atom  24H    basis set group =>   5
Atom  25C    basis set group =>   4
Atom  26C    basis set group =>   4
Atom  27C    basis set group =>   4
Atom  28C    basis set group =>   4
Atom  29H    basis set group =>   5
Atom  30C    basis set group =>   4
Atom  31H    basis set group =>   5
Atom  32H    basis set group =>   5
Atom  33H    basis set group =>   5
Atom  34C    basis set group =>   4
Atom  35H    basis set group =>   5
Atom  36H    basis set group =>   5
Atom  37H    basis set group =>   5
Atom  38C    basis set group =>   4
Atom  39C    basis set group =>   4
Atom  40H    basis set group =>   5
Atom  41H    basis set group =>   5
Atom  42H    basis set group =>   5
Atom  43H    basis set group =>   5
---------------------------------
AUXILIARY/J BASIS SET INFORMATION
---------------------------------
There are 5 groups of distinct atoms

 Group   1 Type Cr  : 19s5p5d3f3g contracted to 8s5p5d2f3g pattern {121111111/11111/11111/21/111}
 Group   2 Type S   : 14s5p5d2f1g contracted to 8s4p3d1f1g pattern {71111111/2111/311/2/1}
 Group   3 Type N   : 12s5p4d2f1g contracted to 6s4p3d1f1g pattern {711111/2111/211/2/1}
 Group   4 Type C   : 12s5p4d2f1g contracted to 6s4p3d1f1g pattern {711111/2111/211/2/1}
 Group   5 Type H   : 5s2p1d contracted to 3s1p1d pattern {311/2/1}

Atom   0Cr   basis set group =>   1
Atom   1S    basis set group =>   2
Atom   2N    basis set group =>   3
Atom   3N    basis set group =>   3
Atom   4C    basis set group =>   4
Atom   5C    basis set group =>   4
Atom   6C    basis set group =>   4
Atom   7C    basis set group =>   4
Atom   8H    basis set group =>   5
Atom   9C    basis set group =>   4
Atom  10H    basis set group =>   5
Atom  11C    basis set group =>   4
Atom  12H    basis set group =>   5
Atom  13H    basis set group =>   5
Atom  14H    basis set group =>   5
Atom  15C    basis set group =>   4
Atom  16C    basis set group =>   4
Atom  17C    basis set group =>   4
Atom  18C    basis set group =>   4
Atom  19C    basis set group =>   4
Atom  20H    basis set group =>   5
Atom  21C    basis set group =>   4
Atom  22H    basis set group =>   5
Atom  23H    basis set group =>   5
Atom  24H    basis set group =>   5
Atom  25C    basis set group =>   4
Atom  26C    basis set group =>   4
Atom  27C    basis set group =>   4
Atom  28C    basis set group =>   4
Atom  29H    basis set group =>   5
Atom  30C    basis set group =>   4
Atom  31H    basis set group =>   5
Atom  32H    basis set group =>   5
Atom  33H    basis set group =>   5
Atom  34C    basis set group =>   4
Atom  35H    basis set group =>   5
Atom  36H    basis set group =>   5
Atom  37H    basis set group =>   5
Atom  38C    basis set group =>   4
Atom  39C    basis set group =>   4
Atom  40H    basis set group =>   5
Atom  41H    basis set group =>   5
Atom  42H    basis set group =>   5
Atom  43H    basis set group =>   5
------------------------------------------------------------------------------
                           ORCA GTO INTEGRAL CALCULATION
                           -- RI-GTO INTEGRALS CHOSEN --
------------------------------------------------------------------------------

                         BASIS SET STATISTICS AND STARTUP INFO

Gaussian basis set:
 # of primitive gaussian shells          ...  623
 # of primitive gaussian functions       ... 1327
 # of contracted shells                  ...  350
 # of contracted basis functions         ...  884
 Highest angular momentum                ...    3
 Maximum contraction depth               ...    8
Auxiliary gaussian basis set:
 # of primitive gaussian shells          ...  750
 # of primitive gaussian functions       ... 2044
 # of contracted shells                  ...  470
 # of contracted aux-basis functions     ... 1438
 Highest angular momentum                ...    4
 Maximum contraction depth               ...   12
Ratio of auxiliary to basis functions    ...  1.63
Integral package used                  ... LIBINT
 One Electron integrals                  ... done
 Ordering auxiliary basis shells         ... done
 Integral threshhold             Thresh  ...  2.500e-11
 Primitive cut-off               TCut    ...  2.500e-12
 Pre-screening matrix                    ... done
 Shell pair data                         ... 
 Ordering of the shell pairs             ... done (   0.005 sec) 43850 of 61425 pairs
 Determination of significant pairs      ... done (   0.000 sec)
 Creation of shell pair data             ... done (   0.003 sec)
 Storage of shell pair data              ... done (   0.004 sec)
 Shell pair data done in (   0.012 sec)
 Computing two index integrals           ... done
 Cholesky decomposition of the V-matrix  ... done


Timings:
 Total evaluation time                   ...   0.639 sec (  0.011 min)
 One electron matrix time                ...   0.225 sec (  0.004 min) = 35.2%
 Schwartz matrix evaluation time         ...   0.345 sec (  0.006 min) = 53.9%
 Two index repulsion integral time       ...   0.021 sec (  0.000 min) =  3.4%
 Cholesky decomposition of V             ...   0.025 sec (  0.000 min) =  3.9%
 Three index repulsion integral time     ...   0.000 sec (  0.000 min) =  0.0%

-------------------------------------------------------------------------------
                                 ORCA SCF
-------------------------------------------------------------------------------

------------
SCF SETTINGS
------------
Hamiltonian:
 Density Functional     Method          .... DFT(GTOs)
 Exchange Functional    Exchange        .... B88
   X-Alpha parameter    XAlpha          ....  0.666667
   Becke's b parameter  XBeta           ....  0.004200
 Correlation Functional Correlation     .... P86
 LDA part of GGA corr.  LDAOpt          .... PW91-LDA
 Gradients option       PostSCFGGA      .... off
   Density functional embedding theory  .... OFF
 RI-approximation to the Coulomb term is turned on
   Number of auxiliary basis functions  .... 1438
   RIJ-COSX (HFX calculated with COS-X)).... on


General Settings:
 Integral files         IntName         .... IM1_4F_Solv1
 Hartree-Fock type      HFTyp           .... UHF
 Total Charge           Charge          ....    1
 Multiplicity           Mult            ....    4
 Number of Electrons    NEL             ....  193
 Basis Dimension        Dim             ....  884
 Nuclear Repulsion      ENuc            ....   2615.3929023727 Eh

Convergence Acceleration:
 DIIS                   CNVDIIS         .... on
   Start iteration      DIISMaxIt       ....    12
   Startup error        DIISStart       ....  0.200000
   # of expansion vecs  DIISMaxEq       ....     5
   Bias factor          DIISBfac        ....   1.050
   Max. coefficient     DIISMaxC        ....  10.000
 Newton-Raphson         CNVNR           .... off
 SOSCF                  CNVSOSCF        .... off
 Level Shifting         CNVShift        .... on
   Level shift para.    LevelShift      ....    0.2500
   Turn off err/grad.   ShiftErr        ....    0.0010
 Zerner damping         CNVZerner       .... off
 Static damping         CNVDamp         .... on
   Fraction old density DampFac         ....    0.7000
   Max. Damping (<1)    DampMax         ....    0.9800
   Min. Damping (>=0)   DampMin         ....    0.0000
   Turn off err/grad.   DampErr         ....    0.1000
 Fernandez-Rico         CNVRico         .... off

SCF Procedure:
 Maximum # iterations   MaxIter         ....   125
 SCF integral mode      SCFMode         .... Direct
   Integral package                     .... LIBINT
 Reset frequency        DirectResetFreq ....    20
 Integral Threshold     Thresh          ....  2.500e-11 Eh
 Primitive CutOff       TCut            ....  2.500e-12 Eh

Convergence Tolerance:
 Convergence Check Mode ConvCheckMode   .... Total+1el-Energy
 Convergence forced     ConvForced      .... 0
 Energy Change          TolE            ....  1.000e-08 Eh
 1-El. energy change                    ....  1.000e-05 Eh
 DIIS Error             TolErr          ....  5.000e-07


Diagonalization of the overlap matrix:
Smallest eigenvalue                        ... 6.135e-06
Time for diagonalization                   ...    0.080 sec
Threshold for overlap eigenvalues          ... 1.000e-08
Number of eigenvalues below threshold      ... 0
Time for construction of square roots      ...    0.053 sec
Total time needed                          ...    0.134 sec

---------------------
INITIAL GUESS: MOREAD
---------------------
Guess MOs are being read from file: IM1_4F.ges
Input Geometry matches current geometry (good)
Atom 0: N(Shells)= 15 and 17 - projection required
Input basis set needs projection
NBasis(read)= 980
NBasis(calc)= 884
Basis set overlap was calculated
Using GuessMode=FMatrix for the initial guess
C*T matrix was formed
Effective Fockian was calculated
Effective Fockian was diagonalized
Initial density was built
C*T matrix was formed
Effective Fockian was calculated
Effective Fockian was diagonalized
Initial density was built
                      ------------------
                      INITIAL GUESS DONE (   0.6 sec)
                      ------------------
-------------------
DFT GRID GENERATION
-------------------

General Integration Accuracy     IntAcc      ...  5.340
Radial Grid Type                 RadialGrid  ... Gauss-Chebyshev
Angular Grid (max. acc.)         AngularGrid ... Lebedev-590
Angular grid pruning method      GridPruning ... 3 (G Style)
Weight generation scheme         WeightScheme... Becke
Basis function cutoff            BFCut       ...    1.0000e-11
Integration weight cutoff        WCut        ...    1.0000e-14
Grids for H and He will be reduced by one unit

# of grid points (after initial pruning)     ... 624918 (   0.4 sec)
# of grid points (after weights+screening)   ... 535835 (   3.5 sec)
nearest neighbour list constructed           ...    0.0 sec
Grid point re-assignment to atoms done       ...    0.1 sec
Grid point division into batches done        ...    3.3 sec
Reduced shell lists constructed in    9.2 sec

Total number of grid points                  ...   535835
Total number of batches                      ...     8393
Average number of points per batch           ...       63
Average number of grid points per atom       ...    12178
Average number of shells per batch           ...   136.19 (38.91%)
Average number of basis functions per batch  ...   331.58 (37.51%)
Average number of large shells per batch     ...    86.57 (63.57%)
Average number of large basis fcns per batch ...   211.99 (63.94%)
Maximum spatial batch extension              ...  26.05, 23.13, 22.04 au
Average spatial batch extension              ...   1.58,  1.60,  1.62 au

Time for grid setup =   13.184 sec

--------------------
COSX GRID GENERATION
--------------------

General Integration Accuracy     IntAcc      ...  3.340
Radial Grid Type                 RadialGrid  ... Gauss-Chebyshev
Angular Grid (max. acc.)         AngularGrid ... Lebedev-50
Angular grid pruning method      GridPruning ... 3 (G Style)
Weight generation scheme         WeightScheme... Becke
Basis function cutoff            BFCut       ...    1.0000e-11
Integration weight cutoff        WCut        ...    1.0000e-14
Grids for H and He will be reduced by one unit

# of grid points (after initial pruning)     ...  20880 (   0.0 sec)
# of grid points (after weights+screening)   ...  18709 (   0.1 sec)
nearest neighbour list constructed           ...    0.0 sec
Grid point re-assignment to atoms done       ...    0.0 sec
Grid point division into batches done        ...    0.0 sec
Reduced shell lists constructed in    0.3 sec

Total number of grid points                  ...    18709
Total number of batches                      ...      316
Average number of points per batch           ...       59
Average number of grid points per atom       ...      425
Average number of shells per batch           ...   172.56 (49.30%)
Average number of basis functions per batch  ...   430.18 (48.66%)
Average number of large shells per batch     ...   114.20 (66.18%)
Average number of large basis fcns per batch ...   285.96 (66.47%)
Maximum spatial batch extension              ...  17.50, 17.91, 21.56 au
Average spatial batch extension              ...   4.42,  4.43,  5.23 au

Overlap Fitting                  UseSFitting ... on
Constructing numerical overlap ... done (      0.3 sec)
Inverting numerical overlap    ... done (      0.0 sec)
Obtaining analytic overlap     ... done (      0.0 sec)
Final contraction and storage  ... done (      0.0 sec)


General Integration Accuracy     IntAcc      ...  3.670
Radial Grid Type                 RadialGrid  ... Gauss-Chebyshev
Angular Grid (max. acc.)         AngularGrid ... Lebedev-50
Angular grid pruning method      GridPruning ... 3 (G Style)
Weight generation scheme         WeightScheme... Becke
Basis function cutoff            BFCut       ...    1.0000e-11
Integration weight cutoff        WCut        ...    1.0000e-14
Grids for H and He will be reduced by one unit

# of grid points (after initial pruning)     ...  26376 (   0.0 sec)
# of grid points (after weights+screening)   ...  23555 (   0.1 sec)
nearest neighbour list constructed           ...    0.0 sec
Grid point re-assignment to atoms done       ...    0.0 sec
Grid point division into batches done        ...    0.0 sec
Reduced shell lists constructed in    0.3 sec

Total number of grid points                  ...    23555
Total number of batches                      ...      386
Average number of points per batch           ...       61
Average number of grid points per atom       ...      535
Average number of shells per batch           ...   169.08 (48.31%)
Average number of basis functions per batch  ...   420.99 (47.62%)
Average number of large shells per batch     ...   110.82 (65.54%)
Average number of large basis fcns per batch ...   276.83 (65.76%)
Maximum spatial batch extension              ...  19.11, 20.24, 20.49 au
Average spatial batch extension              ...   4.25,  4.34,  4.79 au

Overlap Fitting                  UseSFitting ... on
Constructing numerical overlap ... done (      0.3 sec)
Inverting numerical overlap    ... done (      0.0 sec)
Obtaining analytic overlap     ... done (      0.0 sec)
Final contraction and storage  ... done (      0.0 sec)


General Integration Accuracy     IntAcc      ...  4.010
Radial Grid Type                 RadialGrid  ... Gauss-Chebyshev
Angular Grid (max. acc.)         AngularGrid ... Lebedev-110
Angular grid pruning method      GridPruning ... 3 (G Style)
Weight generation scheme         WeightScheme... Becke
Basis function cutoff            BFCut       ...    1.0000e-11
Integration weight cutoff        WCut        ...    1.0000e-14
Grids for H and He will be reduced by one unit

# of grid points (after initial pruning)     ...  49892 (   0.0 sec)
# of grid points (after weights+screening)   ...  44310 (   0.3 sec)
nearest neighbour list constructed           ...    0.0 sec
Grid point re-assignment to atoms done       ...    0.0 sec
Grid point division into batches done        ...    0.0 sec
Reduced shell lists constructed in    0.6 sec

Total number of grid points                  ...    44310
Total number of batches                      ...      714
Average number of points per batch           ...       62
Average number of grid points per atom       ...     1007
Average number of shells per batch           ...   161.30 (46.09%)
Average number of basis functions per batch  ...   400.21 (45.27%)
Average number of large shells per batch     ...   105.70 (65.53%)
Average number of large basis fcns per batch ...   263.16 (65.76%)
Maximum spatial batch extension              ...  21.41, 23.06, 19.55 au
Average spatial batch extension              ...   3.54,  3.59,  3.76 au

Overlap Fitting                  UseSFitting ... on
Constructing numerical overlap ... done (      0.6 sec)
Inverting numerical overlap    ... done (      0.0 sec)
Obtaining analytic overlap     ... done (      0.0 sec)
Final contraction and storage  ... done (      0.0 sec)

Time for X-Grid setup             =    3.099 sec

--------------------
CPCM SOLVATION MODEL
--------------------
CPCM parameters:
  Epsilon                                         ...       2.3741
  Refrac                                          ...       1.3300
  Rsolv                                           ...       1.3000
  Surface type                                    ...    GEPOL SES
  Epsilon function type                           ...         CPCM
Solvent:                                     ... TOLUENE
SMD-CDS solvent descriptors:
  Soln                                       ...    1.4961
  Soln25                                     ...    1.4936
  Sola                                       ...    0.0000
  Solb                                       ...    0.1400
  Solg                                       ...   40.2000
  Solc                                       ...    0.8570
  Solh                                       ...    0.0000
Radii:
 Radius for Cr used is    3.5716 Bohr (=   1.8900 Ang.)
 Radius for S  used is    4.7054 Bohr (=   2.4900 Ang.)
 Radius for N  used is    3.5716 Bohr (=   1.8900 Ang.)
 Radius for C  used is    3.4960 Bohr (=   1.8500 Ang.)
 Radius for H  used is    2.2677 Bohr (=   1.2000 Ang.)
Calculating surface                               ...        done! (  0.1s)
GEPOL surface points                              ...         1638
GEPOL Volume                                      ...    2578.9925
GEPOL Surface-area                                ...    1212.8276
Calculating surface distance matrix               ...        done! (  0.0s)
Performing Cholesky decomposition & store         ...        done! (  0.0s)
Overall time for CPCM initialization              ...                 0.2s
--------------
SCF ITERATIONS
--------------
ITER       Energy         Delta-E        Max-DP      RMS-DP      [F,P]     Damp
               ***  Starting incremental Fock matrix formation  ***
  0  -2326.7386477618   0.000000000000 0.00310394  0.00003999  0.0049066 0.7000
  1  -2326.7389334540  -0.000285692164 0.00266882  0.00003922  0.0033743 0.7000
                               ***Turning on DIIS***
  2  -2326.7391088171  -0.000175363127 0.00610021  0.00010134  0.0026070 0.0000
  3  -2326.7394608245  -0.000352007435 0.00109674  0.00001012  0.0017794 0.0000
  4  -2326.7394915406  -0.000030716047 0.00123337  0.00000757  0.0009836 0.0000
  5  -2326.7394856286   0.000005911919 0.00102038  0.00000259  0.0021100 0.0000
  6  -2326.7395015093  -0.000015880602 0.00017625  0.00000237  0.0003936 0.0000
  7  -2326.7395025408  -0.000001031556 0.00009618  0.00000105  0.0002538 0.0000
  8  -2326.7395026186  -0.000000077785 0.00014036  0.00000088  0.0002576 0.0000
  9  -2326.7395028916  -0.000000273017 0.00008644  0.00000065  0.0000357 0.0000
 10  -2326.7395029025  -0.000000010866 0.00009183  0.00000073  0.0000268 0.0000
 11  -2326.7395029290  -0.000000026490 0.00004602  0.00000054  0.0000109 0.0000
 12  -2326.7395029541  -0.000000025138 0.00005377  0.00000047  0.0000042 0.0000
 13  -2326.7395029481   0.000000005988 0.00005924  0.00000033  0.0000036 0.0000
 14  -2326.7395029451   0.000000003023 0.00008082  0.00000040  0.0000026 0.0000
                            ***DIIS convergence achieved***

               *****************************************************
               *                     SUCCESS                       *
               *           SCF CONVERGED AFTER  15 CYCLES          *
               *****************************************************

Setting up the final grid:

General Integration Accuracy     IntAcc      ...  5.340
Radial Grid Type                 RadialGrid  ... Gauss-Chebyshev
Angular Grid (max. acc.)         AngularGrid ... Lebedev-590
Angular grid pruning method      GridPruning ... 3 (G Style)
Weight generation scheme         WeightScheme... Becke
Basis function cutoff            BFCut       ...    1.0000e-11
Integration weight cutoff        WCut        ...    1.0000e-14
Grids for H and He will be reduced by one unit

# of grid points (after initial pruning)     ... 624918 (   0.2 sec)
# of grid points (after weights+screening)   ... 535835 (   3.5 sec)
nearest neighbour list constructed           ...    0.0 sec
Grid point re-assignment to atoms done       ...    0.0 sec
Grid point division into batches done        ...    3.3 sec
Reduced shell lists constructed in    9.4 sec

Total number of grid points                  ...   535835
Total number of batches                      ...     8393
Average number of points per batch           ...       63
Average number of grid points per atom       ...    12178
Average number of shells per batch           ...   136.19 (38.91%)
Average number of basis functions per batch  ...   331.58 (37.51%)
Average number of large shells per batch     ...    86.57 (63.57%)
Average number of large basis fcns per batch ...   211.99 (63.94%)
Maximum spatial batch extension              ...  26.05, 23.13, 22.04 au
Average spatial batch extension              ...   1.58,  1.60,  1.62 au

Final grid set up in   13.1 sec
Final integration                            ... done (  27.5 sec)
Change in XC energy                          ...     0.000000003
Integrated number of electrons               ...   192.999991622
Previous integrated no of electrons          ...   192.999991630

SMD CDS free energy correction energy :                -8.41500     Kcal/mol
Total Energy after SMD CDS correction =             -2326.752913085 Eh

----------------
TOTAL SCF ENERGY
----------------

Total Energy       :        -2326.75291309 Eh          -63314.16560 eV

Components:
Nuclear Repulsion  :         2615.39290237 Eh           71168.45901 eV
Electronic Energy  :        -4942.14581546 Eh         -134482.62460 eV
One Electron Energy:        -8363.89562976 Eh         -227593.17070 eV
Two Electron Energy:         3421.74981430 Eh           93110.54610 eV
CPCM Dielectric    :           -0.04432258 Eh              -1.20608 eV
SMD CDS (Gcds)     :           -0.01341015 Eh              -0.36491 eV

Virial components:
Potential Energy   :        -4646.53952714 Eh         -126438.76856 eV
Kinetic Energy     :         2319.78661406 Eh           63124.60296 eV
Virial Ratio       :            2.00300299


DFT components:
N(Alpha)           :       97.999996813235 electrons
N(Beta)            :       94.999994808704 electrons
N(Total)           :      192.999991621939 electrons
E(X)               :     -196.800590394153 Eh       
E(C)               :       -7.453124079686 Eh       
E(XC)              :     -204.253714473839 Eh       
DFET-embed. en.    :        0.000000000000 Eh       
CPCM Solvation Model Properties:
Surface-charge          :           -1.05920895
Charge-correction       :            0.00384046 Eh               0.10450 eV
Free-energy (cav+disp)  :            0.00576598 Eh               0.15690 eV
Corrected G(solv)       :        -2326.74330664 Eh          -63313.90419 eV

---------------
SCF CONVERGENCE
---------------

  Last Energy change         ...    7.5843e-09  Tolerance :   1.0000e-08
  Last MAX-Density change    ...    5.1267e-05  Tolerance :   1.0000e-07
  Last RMS-Density change    ...    3.4087e-07  Tolerance :   5.0000e-09
  Last DIIS Error            ...    4.5558e-07  Tolerance :   5.0000e-07

             **** THE GBW FILE WAS UPDATED (IM1_4F_Solv1.gbw) ****
             **** DENSITY FILE WAS UPDATED (IM1_4F_Solv1.scfp) ****
             **** ENERGY FILE WAS UPDATED (IM1_4F_Solv1.en.tmp) ****
----------------------
UHF SPIN CONTAMINATION
----------------------

Warning: in a DFT calculation there is little theoretical justification to 
         calculate <S**2> as in Hartree-Fock theory. We will do it anyways
         but you should keep in mind that the values have only limited relevance

Expectation value of <S**2>     :     3.815649
Ideal value S*(S+1) for S=1.5   :     3.750000
Deviation                       :     0.065649

             **** THE GBW FILE WAS UPDATED (IM1_4F_Solv1.gbw) ****
             **** DENSITY FILE WAS UPDATED (IM1_4F_Solv1.scfp) ****
----------------
ORBITAL ENERGIES
----------------
                 SPIN UP ORBITALS
  NO   OCC          E(Eh)            E(eV) 
   0   1.0000    -214.629953     -5840.3779 
   1   1.0000     -88.202480     -2400.1115 
   2   1.0000     -24.363772      -662.9720 
   3   1.0000     -20.728698      -564.0566 
   4   1.0000     -20.727186      -564.0154 
   5   1.0000     -20.724285      -563.9365 
   6   1.0000     -14.095241      -383.5510 
   7   1.0000     -14.073237      -382.9522 
   8   1.0000     -10.017898      -272.6009 
   9   1.0000     -10.012559      -272.4556 
  10   1.0000     -10.000630      -272.1310 
  11   1.0000     -10.000328      -272.1227 
  12   1.0000      -9.986716      -271.7524 
  13   1.0000      -9.986453      -271.7452 
  14   1.0000      -9.983264      -271.6584 
  15   1.0000      -9.982136      -271.6277 
  16   1.0000      -9.968795      -271.2647 
  17   1.0000      -9.966793      -271.2102 
  18   1.0000      -9.964854      -271.1575 
  19   1.0000      -9.964630      -271.1514 
  20   1.0000      -9.961986      -271.0794 
  21   1.0000      -9.958562      -270.9862 
  22   1.0000      -9.958484      -270.9841 
  23   1.0000      -9.958170      -270.9756 
  24   1.0000      -9.958046      -270.9722 
  25   1.0000      -9.955529      -270.9037 
  26   1.0000      -9.946399      -270.6553 
  27   1.0000      -9.925130      -270.0765 
  28   1.0000      -7.782428      -211.7706 
  29   1.0000      -5.803030      -157.9085 
  30   1.0000      -5.799649      -157.8165 
  31   1.0000      -5.795321      -157.6987 
  32   1.0000      -2.840962       -77.3065 
  33   1.0000      -1.835373       -49.9430 
  34   1.0000      -1.832077       -49.8533 
  35   1.0000      -1.825191       -49.6660 
  36   1.0000      -0.950486       -25.8640 
  37   1.0000      -0.924329       -25.1523 
  38   1.0000      -0.862083       -23.4585 
  39   1.0000      -0.843368       -22.9492 
  40   1.0000      -0.800778       -21.7903 
  41   1.0000      -0.780625       -21.2419 
  42   1.0000      -0.767593       -20.8873 
  43   1.0000      -0.748802       -20.3759 
  44   1.0000      -0.745079       -20.2746 
  45   1.0000      -0.738700       -20.1010 
  46   1.0000      -0.718823       -19.5602 
  47   1.0000      -0.695625       -18.9289 
  48   1.0000      -0.656195       -17.8560 
  49   1.0000      -0.651627       -17.7317 
  50   1.0000      -0.618562       -16.8319 
  51   1.0000      -0.609494       -16.5852 
  52   1.0000      -0.604790       -16.4572 
  53   1.0000      -0.599170       -16.3043 
  54   1.0000      -0.587475       -15.9860 
  55   1.0000      -0.573122       -15.5955 
  56   1.0000      -0.546513       -14.8714 
  57   1.0000      -0.532403       -14.4874 
  58   1.0000      -0.530808       -14.4440 
  59   1.0000      -0.519933       -14.1481 
  60   1.0000      -0.502525       -13.6744 
  61   1.0000      -0.490899       -13.3580 
  62   1.0000      -0.486601       -13.2411 
  63   1.0000      -0.471033       -12.8175 
  64   1.0000      -0.463786       -12.6202 
  65   1.0000      -0.458872       -12.4866 
  66   1.0000      -0.453415       -12.3380 
  67   1.0000      -0.451966       -12.2986 
  68   1.0000      -0.442729       -12.0473 
  69   1.0000      -0.438363       -11.9285 
  70   1.0000      -0.435117       -11.8401 
  71   1.0000      -0.425548       -11.5798 
  72   1.0000      -0.422060       -11.4848 
  73   1.0000      -0.410930       -11.1820 
  74   1.0000      -0.406096       -11.0504 
  75   1.0000      -0.403902       -10.9907 
  76   1.0000      -0.400665       -10.9027 
  77   1.0000      -0.396702       -10.7948 
  78   1.0000      -0.390246       -10.6191 
  79   1.0000      -0.389405       -10.5963 
  80   1.0000      -0.380874       -10.3641 
  81   1.0000      -0.375631       -10.2214 
  82   1.0000      -0.373516       -10.1639 
  83   1.0000      -0.365583        -9.9480 
  84   1.0000      -0.364201        -9.9104 
  85   1.0000      -0.360299        -9.8042 
  86   1.0000      -0.350321        -9.5327 
  87   1.0000      -0.343531        -9.3480 
  88   1.0000      -0.306471        -8.3395 
  89   1.0000      -0.303060        -8.2467 
  90   1.0000      -0.301528        -8.2050 
  91   1.0000      -0.293873        -7.9967 
  92   1.0000      -0.291802        -7.9403 
  93   1.0000      -0.281659        -7.6643 
  94   1.0000      -0.270740        -7.3672 
  95   1.0000      -0.265414        -7.2223 
  96   1.0000      -0.250804        -6.8247 
  97   1.0000      -0.240878        -6.5546 
  98   0.0000      -0.182722        -4.9721 
  99   0.0000      -0.156144        -4.2489 
 100   0.0000      -0.147092        -4.0026 
 101   0.0000      -0.123433        -3.3588 
 102   0.0000      -0.109765        -2.9868 
 103   0.0000      -0.106336        -2.8936 
 104   0.0000      -0.103127        -2.8062 
 105   0.0000      -0.083065        -2.2603 
 106   0.0000      -0.065561        -1.7840 
 107   0.0000      -0.046469        -1.2645 
 108   0.0000      -0.040785        -1.1098 
 109   0.0000      -0.037182        -1.0118 
 110   0.0000      -0.009628        -0.2620 
 111   0.0000      -0.008948        -0.2435 
 112   0.0000      -0.004906        -0.1335 
 113   0.0000      -0.003481        -0.0947 
 114   0.0000      -0.001249        -0.0340 
 115   0.0000       0.007155         0.1947 
 116   0.0000       0.014812         0.4030 
 117   0.0000       0.021500         0.5850 
 118   0.0000       0.025995         0.7074 
 119   0.0000       0.028406         0.7730 
 120   0.0000       0.032500         0.8844 
 121   0.0000       0.036650         0.9973 
 122   0.0000       0.038636         1.0513 
 123   0.0000       0.039681         1.0798 
 124   0.0000       0.044806         1.2192 
 125   0.0000       0.051390         1.3984 
 126   0.0000       0.052509         1.4288 
 127   0.0000       0.059290         1.6134 
 128   0.0000       0.060266         1.6399 
 129   0.0000       0.061496         1.6734 
 130   0.0000       0.066139         1.7997 
 131   0.0000       0.072546         1.9741 
 132   0.0000       0.073691         2.0052 
 133   0.0000       0.077059         2.0969 
 134   0.0000       0.082614         2.2480 
 135   0.0000       0.088925         2.4198 
 136   0.0000       0.094622         2.5748 
 137   0.0000       0.097415         2.6508 
 138   0.0000       0.104077         2.8321 
 139   0.0000       0.105154         2.8614 
 140   0.0000       0.112206         3.0533 
 141   0.0000       0.113740         3.0950 
 142   0.0000       0.116321         3.1653 
 143   0.0000       0.120587         3.2813 
 144   0.0000       0.123457         3.3594 
 145   0.0000       0.129764         3.5311 
 146   0.0000       0.130616         3.5542 
 147   0.0000       0.136259         3.7078 
 148   0.0000       0.145165         3.9501 
 149   0.0000       0.147236         4.0065 
 150   0.0000       0.151042         4.1101 
 151   0.0000       0.153921         4.1884 
 152   0.0000       0.156272         4.2524 
 153   0.0000       0.162104         4.4111 
 154   0.0000       0.164757         4.4833 
 155   0.0000       0.166463         4.5297 
 156   0.0000       0.169900         4.6232 
 157   0.0000       0.171331         4.6622 
 158   0.0000       0.176065         4.7910 
 159   0.0000       0.182426         4.9641 
 160   0.0000       0.183718         4.9992 
 161   0.0000       0.187419         5.0999 
 162   0.0000       0.189904         5.1675 
 163   0.0000       0.193067         5.2536 
 164   0.0000       0.195689         5.3250 
 165   0.0000       0.204095         5.5537 
 166   0.0000       0.208283         5.6677 
 167   0.0000       0.210299         5.7225 
 168   0.0000       0.213853         5.8192 
 169   0.0000       0.219487         5.9725 
 170   0.0000       0.222238         6.0474 
 171   0.0000       0.227353         6.1866 
 172   0.0000       0.230812         6.2807 
 173   0.0000       0.232492         6.3264 
 174   0.0000       0.239327         6.5124 
 175   0.0000       0.240901         6.5553 
 176   0.0000       0.243217         6.6183 
 177   0.0000       0.246340         6.7032 
 178   0.0000       0.253253         6.8914 
 179   0.0000       0.255273         6.9463 
 180   0.0000       0.260227         7.0811 
 181   0.0000       0.266318         7.2469 
 182   0.0000       0.267980         7.2921 
 183   0.0000       0.271578         7.3900 
 184   0.0000       0.277950         7.5634 
 185   0.0000       0.281732         7.6663 
 186   0.0000       0.285657         7.7731 
 187   0.0000       0.286806         7.8044 
 188   0.0000       0.290367         7.9013 
 189   0.0000       0.297789         8.1032 
 190   0.0000       0.300610         8.1800 
 191   0.0000       0.302666         8.2360 
 192   0.0000       0.307695         8.3728 
 193   0.0000       0.312489         8.5033 
 194   0.0000       0.317420         8.6374 
 195   0.0000       0.321582         8.7507 
 196   0.0000       0.323636         8.8066 
 197   0.0000       0.327434         8.9099 
 198   0.0000       0.333181         9.0663 
 199   0.0000       0.335350         9.1253 
 200   0.0000       0.339682         9.2432 
 201   0.0000       0.341142         9.2829 
 202   0.0000       0.345351         9.3975 
 203   0.0000       0.345774         9.4090 
 204   0.0000       0.350531         9.5384 
 205   0.0000       0.354200         9.6383 
 206   0.0000       0.359781         9.7901 
 207   0.0000       0.362670         9.8688 
 208   0.0000       0.365582         9.9480 
 209   0.0000       0.368093        10.0163 
 210   0.0000       0.371565        10.1108 
 211   0.0000       0.373994        10.1769 
 212   0.0000       0.378988        10.3128 
 213   0.0000       0.381421        10.3790 
 214   0.0000       0.382201        10.4002 
 215   0.0000       0.390854        10.6357 
 216   0.0000       0.392091        10.6693 
 217   0.0000       0.393795        10.7157 
 218   0.0000       0.401979        10.9384 
 219   0.0000       0.404221        10.9994 
 220   0.0000       0.405947        11.0464 
 221   0.0000       0.408222        11.1083 
 222   0.0000       0.413790        11.2598 
 223   0.0000       0.416094        11.3225 
 224   0.0000       0.417812        11.3693 
 225   0.0000       0.419683        11.4202 
 226   0.0000       0.422381        11.4936 
 227   0.0000       0.425226        11.5710 
 228   0.0000       0.435280        11.8446 
 229   0.0000       0.438219        11.9245 
 230   0.0000       0.443347        12.0641 
 231   0.0000       0.446351        12.1458 
 232   0.0000       0.446955        12.1623 
 233   0.0000       0.459880        12.5140 
 234   0.0000       0.460587        12.5332 
 235   0.0000       0.466470        12.6933 
 236   0.0000       0.467458        12.7202 
 237   0.0000       0.475734        12.9454 
 238   0.0000       0.478449        13.0193 
 239   0.0000       0.483320        13.1518 
 240   0.0000       0.488547        13.2940 
 241   0.0000       0.497353        13.5337 
 242   0.0000       0.503378        13.6976 
 243   0.0000       0.506914        13.7938 
 244   0.0000       0.507159        13.8005 
 245   0.0000       0.514718        14.0062 
 246   0.0000       0.518083        14.0978 
 247   0.0000       0.527704        14.3596 
 248   0.0000       0.531038        14.4503 
 249   0.0000       0.536351        14.5948 
 250   0.0000       0.541326        14.7302 
 251   0.0000       0.543918        14.8008 
 252   0.0000       0.550119        14.9695 
 253   0.0000       0.560801        15.2602 
 254   0.0000       0.565170        15.3791 
 255   0.0000       0.567498        15.4424 
 256   0.0000       0.569508        15.4971 
 257   0.0000       0.575547        15.6614 
 258   0.0000       0.576277        15.6813 
 259   0.0000       0.585378        15.9290 
 260   0.0000       0.587878        15.9970 
 261   0.0000       0.590940        16.0803 
 262   0.0000       0.596026        16.2187 
 263   0.0000       0.601382        16.3644 
 264   0.0000       0.606596        16.5063 
 265   0.0000       0.607907        16.5420 
 266   0.0000       0.615317        16.7436 
 267   0.0000       0.615942        16.7606 
 268   0.0000       0.621109        16.9012 
 269   0.0000       0.634394        17.2627 
 270   0.0000       0.640216        17.4212 
 271   0.0000       0.648895        17.6573 
 272   0.0000       0.653239        17.7755 
 273   0.0000       0.655779        17.8447 
 274   0.0000       0.663420        18.0526 
 275   0.0000       0.670251        18.2385 
 276   0.0000       0.675421        18.3791 
 277   0.0000       0.679731        18.4964 
 278   0.0000       0.683101        18.5881 
 279   0.0000       0.687159        18.6986 
 280   0.0000       0.690515        18.7899 
 281   0.0000       0.694480        18.8978 
 282   0.0000       0.700823        19.0704 
 283   0.0000       0.704467        19.1695 
 284   0.0000       0.716798        19.5051 
 285   0.0000       0.719158        19.5693 
 286   0.0000       0.724754        19.7216 
 287   0.0000       0.730824        19.8867 
 288   0.0000       0.738893        20.1063 
 289   0.0000       0.742423        20.2024 
 290   0.0000       0.745024        20.2731 
 291   0.0000       0.752971        20.4894 
 292   0.0000       0.757109        20.6020 
 293   0.0000       0.765498        20.8303 
 294   0.0000       0.769876        20.9494 
 295   0.0000       0.777826        21.1657 
 296   0.0000       0.784117        21.3369 
 297   0.0000       0.790557        21.5121 
 298   0.0000       0.792653        21.5692 
 299   0.0000       0.801952        21.8222 
 300   0.0000       0.812036        22.0966 
 301   0.0000       0.818027        22.2596 
 302   0.0000       0.826378        22.4869 
 303   0.0000       0.829771        22.5792 
 304   0.0000       0.836225        22.7548 
 305   0.0000       0.840114        22.8607 
 306   0.0000       0.843237        22.9457 
 307   0.0000       0.847133        23.0517 
 308   0.0000       0.856904        23.3176 
 309   0.0000       0.864206        23.5162 
 310   0.0000       0.867111        23.5953 
 311   0.0000       0.872640        23.7457 
 312   0.0000       0.884611        24.0715 
 313   0.0000       0.886782        24.1306 
 314   0.0000       0.892848        24.2956 
 315   0.0000       0.907253        24.6876 
 316   0.0000       0.912781        24.8380 
 317   0.0000       0.917134        24.9565 
 318   0.0000       0.920594        25.0506 
 319   0.0000       0.924402        25.1543 
 320   0.0000       0.935651        25.4604 
 321   0.0000       0.947137        25.7729 
 322   0.0000       0.952145        25.9092 
 323   0.0000       0.960025        26.1236 
 324   0.0000       0.961410        26.1613 
 325   0.0000       0.966009        26.2864 
 326   0.0000       0.973823        26.4991 
 327   0.0000       0.981617        26.7111 
 328   0.0000       0.988659        26.9028 
 329   0.0000       0.993342        27.0302 
 330   0.0000       1.001719        27.2582 
 331   0.0000       1.002852        27.2890 
 332   0.0000       1.009111        27.4593 
 333   0.0000       1.013949        27.5910 
 334   0.0000       1.025535        27.9062 
 335   0.0000       1.032240        28.0887 
 336   0.0000       1.040876        28.3237 
 337   0.0000       1.044663        28.4267 
 338   0.0000       1.048850        28.5407 
 339   0.0000       1.057613        28.7791 
 340   0.0000       1.068073        29.0637 
 341   0.0000       1.074919        29.2500 
 342   0.0000       1.080966        29.4146 
 343   0.0000       1.087553        29.5938 
 344   0.0000       1.092033        29.7157 
 345   0.0000       1.094168        29.7738 
 346   0.0000       1.102412        29.9982 
 347   0.0000       1.112814        30.2812 
 348   0.0000       1.117952        30.4210 
 349   0.0000       1.123911        30.5832 
 350   0.0000       1.129662        30.7397 
 351   0.0000       1.135956        30.9109 
 352   0.0000       1.138793        30.9881 
 353   0.0000       1.144913        31.1547 
 354   0.0000       1.148443        31.2507 
 355   0.0000       1.153229        31.3810 
 356   0.0000       1.155916        31.4541 
 357   0.0000       1.160078        31.5673 
 358   0.0000       1.169144        31.8140 
 359   0.0000       1.174318        31.9548 
 360   0.0000       1.176860        32.0240 
 361   0.0000       1.187422        32.3114 
 362   0.0000       1.191077        32.4108 
 363   0.0000       1.195791        32.5391 
 364   0.0000       1.205568        32.8052 
 365   0.0000       1.208561        32.8866 
 366   0.0000       1.214692        33.0534 
 367   0.0000       1.228959        33.4417 
 368   0.0000       1.242569        33.8120 
 369   0.0000       1.258705        34.2511 
 370   0.0000       1.272681        34.6314 
 371   0.0000       1.283691        34.9310 
 372   0.0000       1.290942        35.1283 
 373   0.0000       1.297216        35.2990 
 374   0.0000       1.305641        35.5283 
 375   0.0000       1.309729        35.6395 
 376   0.0000       1.315089        35.7854 
 377   0.0000       1.324193        36.0331 
 378   0.0000       1.327342        36.1188 
 379   0.0000       1.341893        36.5148 
 380   0.0000       1.350575        36.7510 
 381   0.0000       1.355195        36.8767 
 382   0.0000       1.356491        36.9120 
 383   0.0000       1.363727        37.1089 
 384   0.0000       1.368039        37.2262 
 385   0.0000       1.379543        37.5393 
 386   0.0000       1.381654        37.5967 
 387   0.0000       1.382506        37.6199 
 388   0.0000       1.395947        37.9857 
 389   0.0000       1.404892        38.2291 
 390   0.0000       1.411117        38.3984 
 391   0.0000       1.414279        38.4845 
 392   0.0000       1.417772        38.5795 
 393   0.0000       1.424250        38.7558 
 394   0.0000       1.433580        39.0097 
 395   0.0000       1.437434        39.1146 
 396   0.0000       1.438799        39.1517 
 397   0.0000       1.448240        39.4086 
 398   0.0000       1.452122        39.5143 
 399   0.0000       1.460509        39.7425 
 400   0.0000       1.462583        39.7989 
 401   0.0000       1.467325        39.9279 
 402   0.0000       1.472139        40.0589 
 403   0.0000       1.481552        40.3151 
 404   0.0000       1.483905        40.3791 
 405   0.0000       1.492600        40.6157 
 406   0.0000       1.497175        40.7402 
 407   0.0000       1.501141        40.8481 
 408   0.0000       1.507063        41.0093 
 409   0.0000       1.511311        41.1249 
 410   0.0000       1.513393        41.1815 
 411   0.0000       1.516736        41.2725 
 412   0.0000       1.524087        41.4725 
 413   0.0000       1.530764        41.6542 
 414   0.0000       1.531939        41.6862 
 415   0.0000       1.542384        41.9704 
 416   0.0000       1.543670        42.0054 
 417   0.0000       1.550674        42.1960 
 418   0.0000       1.554461        42.2990 
 419   0.0000       1.566203        42.6185 
 420   0.0000       1.571552        42.7641 
 421   0.0000       1.577332        42.9214 
 422   0.0000       1.581644        43.0387 
 423   0.0000       1.581869        43.0448 
 424   0.0000       1.584903        43.1274 
 425   0.0000       1.590405        43.2771 
 426   0.0000       1.597720        43.4762 
 427   0.0000       1.604990        43.6740 
 428   0.0000       1.606696        43.7204 
 429   0.0000       1.611478        43.8506 
 430   0.0000       1.615960        43.9725 
 431   0.0000       1.619383        44.0656 
 432   0.0000       1.628456        44.3125 
 433   0.0000       1.630838        44.3774 
 434   0.0000       1.644319        44.7442 
 435   0.0000       1.647175        44.8219 
 436   0.0000       1.650330        44.9078 
 437   0.0000       1.662406        45.2364 
 438   0.0000       1.670774        45.4641 
 439   0.0000       1.673528        45.5390 
 440   0.0000       1.676511        45.6202 
 441   0.0000       1.684482        45.8371 
 442   0.0000       1.696519        46.1646 
 443   0.0000       1.698154        46.2091 
 444   0.0000       1.702843        46.3367 
 445   0.0000       1.713174        46.6178 
 446   0.0000       1.725104        46.9425 
 447   0.0000       1.730740        47.0958 
 448   0.0000       1.734772        47.2055 
 449   0.0000       1.745339        47.4931 
 450   0.0000       1.754655        47.7466 
 451   0.0000       1.757490        47.8237 
 452   0.0000       1.759712        47.8842 
 453   0.0000       1.764843        48.0238 
 454   0.0000       1.773421        48.2572 
 455   0.0000       1.790812        48.7305 
 456   0.0000       1.792596        48.7790 
 457   0.0000       1.798942        48.9517 
 458   0.0000       1.813201        49.3397 
 459   0.0000       1.823576        49.6220 
 460   0.0000       1.827684        49.7338 
 461   0.0000       1.832102        49.8540 
 462   0.0000       1.852982        50.4222 
 463   0.0000       1.858299        50.5669 
 464   0.0000       1.869983        50.8848 
 465   0.0000       1.878570        51.1185 
 466   0.0000       1.890887        51.4537 
 467   0.0000       1.895488        51.5789 
 468   0.0000       1.900204        51.7072 
 469   0.0000       1.904446        51.8226 
 470   0.0000       1.917594        52.1804 
 471   0.0000       1.918793        52.2130 
 472   0.0000       1.931403        52.5562 
 473   0.0000       1.935806        52.6760 
 474   0.0000       1.944869        52.9226 
 475   0.0000       1.956740        53.2456 
 476   0.0000       1.966669        53.5158 
 477   0.0000       1.971098        53.6363 
 478   0.0000       1.979525        53.8656 
 479   0.0000       1.988618        54.1130 
 480   0.0000       1.990859        54.1740 
 481   0.0000       1.997347        54.3506 
 482   0.0000       2.003758        54.5250 
 483   0.0000       2.011948        54.7479 
 484   0.0000       2.017330        54.8943 
 485   0.0000       2.021886        55.0183 
 486   0.0000       2.022827        55.0439 
 487   0.0000       2.031819        55.2886 
 488   0.0000       2.033709        55.3400 
 489   0.0000       2.037634        55.4468 
 490   0.0000       2.049963        55.7823 
 491   0.0000       2.062445        56.1220 
 492   0.0000       2.065379        56.2018 
 493   0.0000       2.073768        56.4301 
 494   0.0000       2.083770        56.7023 
 495   0.0000       2.094595        56.9968 
 496   0.0000       2.105497        57.2935 
 497   0.0000       2.106743        57.3274 
 498   0.0000       2.115627        57.5691 
 499   0.0000       2.125593        57.8403 
 500   0.0000       2.134533        58.0836 
 501   0.0000       2.139330        58.2141 
 502   0.0000       2.143948        58.3398 
 503   0.0000       2.151161        58.5361 
 504   0.0000       2.160771        58.7976 
 505   0.0000       2.172036        59.1041 
 506   0.0000       2.177174        59.2439 
 507   0.0000       2.186733        59.5040 
 508   0.0000       2.197463        59.7960 
 509   0.0000       2.201881        59.9162 
 510   0.0000       2.210201        60.1426 
 511   0.0000       2.220999        60.4365 
 512   0.0000       2.233386        60.7735 
 513   0.0000       2.239823        60.9487 
 514   0.0000       2.251280        61.2604 
 515   0.0000       2.259540        61.4852 
 516   0.0000       2.262598        61.5684 
 517   0.0000       2.279676        62.0331 
 518   0.0000       2.298923        62.5569 
 519   0.0000       2.312004        62.9128 
 520   0.0000       2.315691        63.0132 
 521   0.0000       2.318875        63.0998 
 522   0.0000       2.325678        63.2849 
 523   0.0000       2.333404        63.4952 
 524   0.0000       2.338625        63.6372 
 525   0.0000       2.346639        63.8553 
 526   0.0000       2.350978        63.9734 
 527   0.0000       2.363977        64.3271 
 528   0.0000       2.368452        64.4489 
 529   0.0000       2.373798        64.5943 
 530   0.0000       2.378009        64.7089 
 531   0.0000       2.390054        65.0367 
 532   0.0000       2.400969        65.3337 
 533   0.0000       2.414718        65.7078 
 534   0.0000       2.425148        65.9916 
 535   0.0000       2.426450        66.0271 
 536   0.0000       2.433773        66.2263 
 537   0.0000       2.439129        66.3721 
 538   0.0000       2.441734        66.4430 
 539   0.0000       2.446949        66.5849 
 540   0.0000       2.460415        66.9513 
 541   0.0000       2.462912        67.0192 
 542   0.0000       2.468493        67.1711 
 543   0.0000       2.478434        67.4416 
 544   0.0000       2.482838        67.5615 
 545   0.0000       2.484042        67.5942 
 546   0.0000       2.490676        67.7747 
 547   0.0000       2.496370        67.9297 
 548   0.0000       2.504390        68.1479 
 549   0.0000       2.506957        68.2178 
 550   0.0000       2.511466        68.3405 
 551   0.0000       2.514545        68.4242 
 552   0.0000       2.520725        68.5924 
 553   0.0000       2.524193        68.6868 
 554   0.0000       2.532168        68.9038 
 555   0.0000       2.536632        69.0253 
 556   0.0000       2.538851        69.0856 
 557   0.0000       2.544359        69.2355 
 558   0.0000       2.545823        69.2754 
 559   0.0000       2.554540        69.5126 
 560   0.0000       2.563825        69.7652 
 561   0.0000       2.567509        69.8655 
 562   0.0000       2.572166        69.9922 
 563   0.0000       2.574035        70.0431 
 564   0.0000       2.577886        70.1478 
 565   0.0000       2.588245        70.4297 
 566   0.0000       2.591487        70.5180 
 567   0.0000       2.594977        70.6129 
 568   0.0000       2.599778        70.7436 
 569   0.0000       2.605968        70.9120 
 570   0.0000       2.613758        71.1240 
 571   0.0000       2.621091        71.3235 
 572   0.0000       2.629158        71.5430 
 573   0.0000       2.633112        71.6506 
 574   0.0000       2.634893        71.6991 
 575   0.0000       2.638085        71.7859 
 576   0.0000       2.652042        72.1657 
 577   0.0000       2.657443        72.3127 
 578   0.0000       2.664657        72.5090 
 579   0.0000       2.669561        72.6424 
 580   0.0000       2.674477        72.7762 
 581   0.0000       2.682585        72.9969 
 582   0.0000       2.693240        73.2868 
 583   0.0000       2.696926        73.3871 
 584   0.0000       2.705742        73.6270 
 585   0.0000       2.707111        73.6642 
 586   0.0000       2.714860        73.8751 
 587   0.0000       2.720248        74.0217 
 588   0.0000       2.721096        74.0448 
 589   0.0000       2.727050        74.2068 
 590   0.0000       2.738449        74.5170 
 591   0.0000       2.741833        74.6091 
 592   0.0000       2.750037        74.8323 
 593   0.0000       2.755030        74.9682 
 594   0.0000       2.758865        75.0725 
 595   0.0000       2.763736        75.2051 
 596   0.0000       2.772170        75.4346 
 597   0.0000       2.775538        75.5262 
 598   0.0000       2.782638        75.7194 
 599   0.0000       2.786924        75.8361 
 600   0.0000       2.798532        76.1519 
 601   0.0000       2.807088        76.3848 
 602   0.0000       2.810270        76.4713 
 603   0.0000       2.810618        76.4808 
 604   0.0000       2.819095        76.7115 
 605   0.0000       2.825464        76.8848 
 606   0.0000       2.831586        77.0514 
 607   0.0000       2.835305        77.1526 
 608   0.0000       2.839159        77.2574 
 609   0.0000       2.845982        77.4431 
 610   0.0000       2.853432        77.6458 
 611   0.0000       2.858575        77.7858 
 612   0.0000       2.865773        77.9816 
 613   0.0000       2.872476        78.1640 
 614   0.0000       2.880796        78.3904 
 615   0.0000       2.886799        78.5538 
 616   0.0000       2.890165        78.6454 
 617   0.0000       2.901857        78.9635 
 618   0.0000       2.919055        79.4315 
 619   0.0000       2.919328        79.4389 
 620   0.0000       2.923747        79.5592 
 621   0.0000       2.941224        80.0348 
 622   0.0000       2.944132        80.1139 
 623   0.0000       2.954396        80.3932 
 624   0.0000       2.957333        80.4731 
 625   0.0000       2.964031        80.6554 
 626   0.0000       2.970118        80.8210 
 627   0.0000       2.971771        80.8660 
 628   0.0000       2.977980        81.0349 
 629   0.0000       2.984910        81.2235 
 630   0.0000       2.986254        81.2601 
 631   0.0000       2.992020        81.4170 
 632   0.0000       2.995146        81.5021 
 633   0.0000       3.000712        81.6535 
 634   0.0000       3.002876        81.7124 
 635   0.0000       3.013539        82.0026 
 636   0.0000       3.015727        82.0621 
 637   0.0000       3.017995        82.1238 
 638   0.0000       3.021686        82.2243 
 639   0.0000       3.028186        82.4011 
 640   0.0000       3.033923        82.5572 
 641   0.0000       3.037922        82.6661 
 642   0.0000       3.040791        82.7441 
 643   0.0000       3.046520        82.9000 
 644   0.0000       3.049079        82.9697 
 645   0.0000       3.056711        83.1773 
 646   0.0000       3.063685        83.3671 
 647   0.0000       3.070930        83.5643 
 648   0.0000       3.073279        83.6282 
 649   0.0000       3.078426        83.7682 
 650   0.0000       3.080146        83.8150 
 651   0.0000       3.098904        84.3255 
 652   0.0000       3.104912        84.4889 
 653   0.0000       3.107214        84.5516 
 654   0.0000       3.113246        84.7157 
 655   0.0000       3.127499        85.1036 
 656   0.0000       3.130410        85.1828 
 657   0.0000       3.133200        85.2587 
 658   0.0000       3.139561        85.4318 
 659   0.0000       3.140549        85.4587 
 660   0.0000       3.147962        85.6604 
 661   0.0000       3.154013        85.8251 
 662   0.0000       3.159380        85.9711 
 663   0.0000       3.163270        86.0769 
 664   0.0000       3.169739        86.2530 
 665   0.0000       3.172036        86.3155 
 666   0.0000       3.175509        86.4100 
 667   0.0000       3.188595        86.7661 
 668   0.0000       3.193298        86.8941 
 669   0.0000       3.195305        86.9487 
 670   0.0000       3.198805        87.0439 
 671   0.0000       3.205040        87.2136 
 672   0.0000       3.213642        87.4477 
 673   0.0000       3.220031        87.6215 
 674   0.0000       3.226306        87.7923 
 675   0.0000       3.229727        87.8853 
 676   0.0000       3.232431        87.9589 
 677   0.0000       3.242254        88.2262 
 678   0.0000       3.246095        88.3307 
 679   0.0000       3.247580        88.3711 
 680   0.0000       3.252422        88.5029 
 681   0.0000       3.257957        88.6535 
 682   0.0000       3.261011        88.7366 
 683   0.0000       3.264547        88.8328 
 684   0.0000       3.271850        89.0316 
 685   0.0000       3.279706        89.2453 
 686   0.0000       3.282154        89.3120 
 687   0.0000       3.285228        89.3956 
 688   0.0000       3.288090        89.4735 
 689   0.0000       3.290726        89.5452 
 690   0.0000       3.302507        89.8658 
 691   0.0000       3.306053        89.9623 
 692   0.0000       3.312807        90.1461 
 693   0.0000       3.314263        90.1857 
 694   0.0000       3.316913        90.2578 
 695   0.0000       3.324355        90.4603 
 696   0.0000       3.331832        90.6638 
 697   0.0000       3.337247        90.8111 
 698   0.0000       3.342063        90.9422 
 699   0.0000       3.357288        91.3565 
 700   0.0000       3.361518        91.4715 
 701   0.0000       3.368269        91.6553 
 702   0.0000       3.370760        91.7230 
 703   0.0000       3.373445        91.7961 
 704   0.0000       3.377807        91.9148 
 705   0.0000       3.381687        92.0204 
 706   0.0000       3.385095        92.1131 
 707   0.0000       3.389877        92.2432 
 708   0.0000       3.392549        92.3160 
 709   0.0000       3.401716        92.5654 
 710   0.0000       3.408576        92.7521 
 711   0.0000       3.423616        93.1613 
 712   0.0000       3.433262        93.4238 
 713   0.0000       3.435817        93.4933 
 714   0.0000       3.452703        93.9528 
 715   0.0000       3.456510        94.0564 
 716   0.0000       3.471125        94.4541 
 717   0.0000       3.485241        94.8382 
 718   0.0000       3.491831        95.0176 
 719   0.0000       3.508073        95.4595 
 720   0.0000       3.520000        95.7841 
 721   0.0000       3.528129        96.0053 
 722   0.0000       3.537409        96.2578 
[...]
      pz      :    -0.000000  p :    -0.000002
      px      :     0.000001
      py      :    -0.000002
 13 H s       :    -0.000026  s :    -0.000026
      pz      :     0.000020  p :     0.000029
      px      :     0.000009
      py      :     0.000000
 14 H s       :     0.000106  s :     0.000106
      pz      :     0.000007  p :     0.000009
      px      :    -0.000001
      py      :     0.000002
 15 C s       :     0.000886  s :     0.000886
      pz      :     0.001447  p :     0.005097
      px      :     0.000206
      py      :     0.003444
      dz2     :    -0.000200  d :    -0.002003
      dxz     :    -0.000093
      dyz     :    -0.000832
      dx2y2   :    -0.000392
      dxy     :    -0.000486
      f0      :     0.000001  f :    -0.000130
      f+1     :    -0.000004
      f-1     :    -0.000030
      f+2     :    -0.000046
      f-2     :    -0.000024
      f+3     :    -0.000002
      f-3     :    -0.000024
 16 C s       :     0.000399  s :     0.000399
      pz      :     0.001751  p :     0.002990
      px      :     0.000989
      py      :     0.000251
      dz2     :    -0.000567  d :    -0.002438
      dxz     :    -0.000004
      dyz     :    -0.000533
      dx2y2   :    -0.000578
      dxy     :    -0.000757
      f0      :    -0.000022  f :    -0.000343
      f+1     :    -0.000068
      f-1     :    -0.000005
      f+2     :    -0.000005
      f-2     :    -0.000097
      f+3     :    -0.000128
      f-3     :    -0.000018
 17 C s       :    -0.000088  s :    -0.000088
      pz      :    -0.000952  p :    -0.002615
      px      :    -0.000744
      py      :    -0.000919
      dz2     :     0.000127  d :     0.000451
      dxz     :     0.000067
      dyz     :     0.000124
      dx2y2   :    -0.000006
      dxy     :     0.000140
      f0      :     0.000001  f :     0.000029
      f+1     :     0.000001
      f-1     :     0.000015
      f+2     :     0.000008
      f-2     :     0.000001
      f+3     :     0.000006
      f-3     :    -0.000002
 18 C s       :    -0.000104  s :    -0.000104
      pz      :     0.000298  p :    -0.000327
      px      :    -0.000237
      py      :    -0.000387
      dz2     :     0.000028  d :     0.000327
      dxz     :     0.000021
      dyz     :     0.000214
      dx2y2   :    -0.000007
      dxy     :     0.000071
      f0      :     0.000001  f :     0.000057
      f+1     :     0.000006
      f-1     :    -0.000001
      f+2     :    -0.000001
      f-2     :     0.000019
      f+3     :     0.000017
      f-3     :     0.000017
 19 C s       :    -0.000006  s :    -0.000006
      pz      :    -0.000869  p :    -0.000848
      px      :    -0.000108
      py      :     0.000130
      dz2     :    -0.000006  d :     0.000096
      dxz     :    -0.000013
      dyz     :     0.000059
      dx2y2   :     0.000072
      dxy     :    -0.000016
      f0      :     0.000002  f :     0.000015
      f+1     :     0.000003
      f-1     :     0.000000
      f+2     :     0.000001
      f-2     :     0.000003
      f+3     :     0.000000
      f-3     :     0.000005
 20 H s       :     0.000035  s :     0.000035
      pz      :     0.000005  p :     0.000003
      px      :    -0.000008
      py      :     0.000005
 21 C s       :     0.000031  s :     0.000031
      pz      :     0.000177  p :     0.000682
      px      :     0.000400
      py      :     0.000106
      dz2     :    -0.000161  d :    -0.000374
      dxz     :    -0.000045
      dyz     :    -0.000078
      dx2y2   :    -0.000028
      dxy     :    -0.000062
      f0      :    -0.000003  f :    -0.000035
      f+1     :    -0.000011
      f-1     :    -0.000003
      f+2     :    -0.000001
      f-2     :    -0.000003
      f+3     :    -0.000000
      f-3     :    -0.000013
 22 H s       :     0.000138  s :     0.000138
      pz      :    -0.000037  p :    -0.000074
      px      :    -0.000023
      py      :    -0.000014
 23 H s       :     0.000062  s :     0.000062
      pz      :    -0.000014  p :    -0.000019
      px      :    -0.000008
      py      :     0.000003
 24 H s       :    -0.000146  s :    -0.000146
      pz      :     0.000004  p :     0.000018
      px      :     0.000008
      py      :     0.000005
 25 C s       :     0.001266  s :     0.001266
      pz      :     0.011157  p :     0.019892
      px      :     0.005092
      py      :     0.003642
      dz2     :     0.000928  d :    -0.000274
      dxz     :    -0.000626
      dyz     :    -0.000315
      dx2y2   :    -0.001080
      dxy     :     0.000819
      f0      :     0.000001  f :    -0.000257
      f+1     :     0.000021
      f-1     :    -0.000022
      f+2     :    -0.000071
      f-2     :    -0.000068
      f+3     :    -0.000113
      f-3     :    -0.000004
 26 C s       :     0.001083  s :     0.001083
      pz      :     0.006427  p :     0.013157
      px      :     0.002873
      py      :     0.003857
      dz2     :     0.000919  d :     0.000763
      dxz     :    -0.000059
      dyz     :    -0.000061
      dx2y2   :    -0.000050
      dxy     :     0.000013
      f0      :     0.000078  f :     0.000145
      f+1     :     0.000159
      f-1     :     0.000009
      f+2     :    -0.000008
      f-2     :    -0.000001
      f+3     :    -0.000147
      f-3     :     0.000054
 27 C s       :     0.000874  s :     0.000874
      pz      :     0.006411  p :     0.013260
      px      :     0.004570
      py      :     0.002279
      dz2     :    -0.000155  d :    -0.000188
      dxz     :     0.000634
      dyz     :     0.000215
      dx2y2   :    -0.000684
      dxy     :    -0.000198
      f0      :     0.000031  f :    -0.000226
      f+1     :    -0.000055
      f-1     :    -0.000025
      f+2     :    -0.000042
      f-2     :    -0.000113
      f+3     :    -0.000078
      f-3     :     0.000056
 28 C s       :     0.000118  s :     0.000118
      pz      :     0.006911  p :     0.010932
      px      :     0.002247
      py      :     0.001774
      dz2     :     0.000240  d :     0.002204
      dxz     :     0.000259
      dyz     :     0.000559
      dx2y2   :     0.000995
      dxy     :     0.000152
      f0      :     0.000059  f :     0.000184
      f+1     :    -0.000004
      f-1     :     0.000011
      f+2     :    -0.000008
      f-2     :    -0.000002
      f+3     :     0.000094
      f-3     :     0.000036
 29 H s       :    -0.000601  s :    -0.000601
      pz      :     0.000172  p :     0.000348
      px      :     0.000093
      py      :     0.000083
 30 C s       :     0.000081  s :     0.000081
      pz      :     0.003940  p :     0.007239
      px      :     0.002500
      py      :     0.000800
      dz2     :     0.001217  d :     0.002699
      dxz     :     0.000660
      dyz     :     0.000071
      dx2y2   :     0.000347
      dxy     :     0.000404
      f0      :     0.000063  f :     0.000258
      f+1     :     0.000006
      f-1     :     0.000078
      f+2     :    -0.000005
      f-2     :     0.000029
      f+3     :     0.000103
      f-3     :    -0.000016
 31 H s       :    -0.000127  s :    -0.000127
      pz      :     0.000087  p :     0.000222
      px      :     0.000065
      py      :     0.000070
 32 H s       :    -0.000494  s :    -0.000494
      pz      :     0.000204  p :     0.000354
      px      :     0.000109
      py      :     0.000041
 33 H s       :    -0.001701  s :    -0.001701
      pz      :     0.000225  p :     0.000535
      px      :     0.000149
      py      :     0.000161
 34 C s       :    -0.013450  s :    -0.013450
      pz      :    -0.077787  p :    -0.131849
      px      :    -0.038809
      py      :    -0.015253
      dz2     :     0.013459  d :     0.040042
      dxz     :     0.006856
      dyz     :     0.004771
      dx2y2   :     0.006403
      dxy     :     0.008554
      f0      :     0.000778  f :     0.003147
      f+1     :     0.000460
      f-1     :     0.000386
      f+2     :     0.000783
      f-2     :     0.000274
      f+3     :     0.000148
      f-3     :     0.000318
 35 H s       :     0.011477  s :     0.011477
      pz      :    -0.001406  p :    -0.002844
      px      :    -0.001170
      py      :    -0.000268
 36 H s       :     0.015152  s :     0.015152
      pz      :    -0.001659  p :    -0.002936
      px      :    -0.000640
      py      :    -0.000637
 37 H s       :     0.011855  s :     0.011855
      pz      :    -0.001412  p :    -0.002878
      px      :    -0.000678
      py      :    -0.000787
 38 C s       :    -0.000775  s :    -0.000775
      pz      :    -0.002752  p :    -0.015027
      px      :     0.001173
      py      :    -0.013448
      dz2     :     0.000962  d :     0.019647
      dxz     :     0.000366
      dyz     :     0.010603
      dx2y2   :     0.003961
      dxy     :     0.003755
      f0      :     0.000425  f :     0.002130
      f+1     :     0.000060
      f-1     :     0.000291
      f+2     :     0.000150
      f-2     :     0.000625
      f+3     :     0.000206
      f-3     :     0.000372
 39 C s       :     0.001096  s :     0.001096
      pz      :     0.007033  p :     0.051761
      px      :     0.002674
      py      :     0.042054
      dz2     :     0.001160  d :     0.005815
      dxz     :     0.000504
      dyz     :     0.000654
      dx2y2   :     0.000916
      dxy     :     0.002581
      f0      :     0.000030  f :     0.000429
      f+1     :     0.000004
      f-1     :     0.000154
      f+2     :     0.000013
      f-2     :     0.000093
      f+3     :     0.000087
      f-3     :     0.000050
 40 H s       :     0.002976  s :     0.002976
      pz      :    -0.000053  p :    -0.000261
      px      :    -0.000153
      py      :    -0.000055
 41 H s       :     0.002929  s :     0.002929
      pz      :    -0.000008  p :    -0.000345
      px      :     0.000071
      py      :    -0.000407
 42 H s       :    -0.000069  s :    -0.000069
      pz      :     0.000134  p :     0.001424
      px      :     0.000048
      py      :     0.001242
 43 H s       :     0.000204  s :     0.000204
      pz      :     0.000155  p :     0.001265
      px      :     0.000222
      py      :     0.000889


                      *****************************
                      * MAYER POPULATION ANALYSIS *
                      *****************************

  NA   - Mulliken gross atomic population
  ZA   - Total nuclear charge
  QA   - Mulliken gross atomic charge
  VA   - Mayer's total valence
  BVA  - Mayer's bonded valence
  FA   - Mayer's free valence

  ATOM       NA         ZA         QA         VA         BVA        FA
  0 Cr    23.7463    24.0000     0.2537     6.6725     4.1109     2.5617
  1 S     16.0055    16.0000    -0.0055     2.8102     2.8060     0.0042
  2 N      7.1238     7.0000    -0.1238     3.1991     3.1938     0.0052
  3 N      7.1356     7.0000    -0.1356     3.1917     3.1875     0.0042
  4 C      5.7798     6.0000     0.2202     3.5082     3.5079     0.0003
  5 C      6.2393     6.0000    -0.2393     3.8845     3.8845     0.0000
  6 C      6.2253     6.0000    -0.2253     3.9023     3.9022     0.0001
  7 C      6.1112     6.0000    -0.1112     3.8920     3.8920     0.0000
  8 H      0.8362     1.0000     0.1638     0.9636     0.9636     0.0000
  9 C      6.1136     6.0000    -0.1136     3.8822     3.8822     0.0000
 10 H      0.8197     1.0000     0.1803     0.9522     0.9522     0.0000
 11 C      6.1293     6.0000    -0.1293     3.8814     3.8814     0.0000
 12 H      0.8453     1.0000     0.1547     0.9607     0.9607     0.0000
 13 H      0.8462     1.0000     0.1538     0.9610     0.9610     0.0000
 14 H      0.8459     1.0000     0.1541     0.9612     0.9612     0.0000
 15 C      5.9794     6.0000     0.0206     3.7929     3.7926     0.0003
 16 C      5.7337     6.0000     0.2663     3.7297     3.7294     0.0003
 17 C      6.2536     6.0000    -0.2536     3.9523     3.9523     0.0000
 18 C      6.1306     6.0000    -0.1306     3.8419     3.8419     0.0000
 19 C      6.1371     6.0000    -0.1371     3.8852     3.8851     0.0000
 20 H      0.8340     1.0000     0.1660     0.9589     0.9589     0.0000
 21 C      6.1178     6.0000    -0.1178     3.8860     3.8860     0.0000
 22 H      0.8523     1.0000     0.1477     0.9776     0.9776     0.0000
 23 H      0.8443     1.0000     0.1557     0.9612     0.9612     0.0000
 24 H      0.8449     1.0000     0.1551     0.9615     0.9615     0.0000
 25 C      6.0267     6.0000    -0.0267     4.0245     4.0240     0.0005
 26 C      5.7805     6.0000     0.2195     3.6468     3.6464     0.0004
 27 C      6.1817     6.0000    -0.1817     3.9848     3.9845     0.0004
 28 C      6.0996     6.0000    -0.0996     3.8129     3.8127     0.0002
 29 H      0.8285     1.0000     0.1715     0.9665     0.9665     0.0000
 30 C      6.2662     6.0000    -0.2662     3.9340     3.9339     0.0001
 31 H      0.8438     1.0000     0.1562     0.9701     0.9701     0.0000
 32 H      0.8401     1.0000     0.1599     0.9668     0.9668     0.0000
 33 H      0.8386     1.0000     0.1614     0.9685     0.9685     0.0000
 34 C      6.5691     6.0000    -0.5691     3.8100     3.7661     0.0440
 35 H      0.8301     1.0000     0.1699     0.9673     0.9669     0.0004
 36 H      0.8474     1.0000     0.1526     0.9812     0.9805     0.0007
 37 H      0.8276     1.0000     0.1724     0.9457     0.9453     0.0004
 38 C      6.2818     6.0000    -0.2818     3.8017     3.7999     0.0019
 39 C      6.1717     6.0000    -0.1717     3.7646     3.7617     0.0029
 40 H      0.8071     1.0000     0.1929     0.9732     0.9732     0.0000
 41 H      0.8120     1.0000     0.1880     0.9763     0.9762     0.0000
 42 H      0.8187     1.0000     0.1813     0.9778     0.9778     0.0000
 43 H      0.7980     1.0000     0.2020     0.9590     0.9590     0.0000

  Mayer bond orders larger than 0.100000
B(  0-Cr,  1-S ) :   0.7052 B(  0-Cr,  2-N ) :   0.6755 B(  0-Cr,  3-N ) :   0.7349 
B(  0-Cr, 34-C ) :   0.9733 B(  0-Cr, 38-C ) :   0.3376 B(  0-Cr, 39-C ) :   0.2891 
B(  1-S ,  4-C ) :   0.8542 B(  1-S , 15-C ) :   0.9552 B(  2-N , 16-C ) :   1.0268 
B(  2-N , 25-C ) :   1.4025 B(  3-N , 26-C ) :   0.9964 B(  3-N , 27-C ) :   1.3437 
B(  4-C ,  5-C ) :   1.2742 B(  4-C ,  6-C ) :   1.2882 B(  5-C ,  7-C ) :   1.3964 
B(  5-C ,  8-H ) :   0.9707 B(  6-C ,  9-C ) :   1.3951 B(  6-C , 10-H ) :   0.9596 
B(  7-C , 11-C ) :   1.3829 B(  7-C , 12-H ) :   0.9646 B(  9-C , 11-C ) :   1.3680 
B(  9-C , 14-H ) :   0.9645 B( 11-C , 13-H ) :   0.9634 B( 15-C , 16-C ) :   1.2926 
B( 15-C , 18-C ) :   1.3156 B( 16-C , 17-C ) :   1.2954 B( 17-C , 21-C ) :   1.4178 
B( 17-C , 22-H ) :   0.9628 B( 18-C , 19-C ) :   1.3888 B( 18-C , 20-H ) :   0.9581 
B( 19-C , 21-C ) :   1.3486 B( 19-C , 23-H ) :   0.9668 B( 21-C , 24-H ) :   0.9622 
B( 25-C , 26-C ) :   1.3530 B( 25-C , 33-H ) :   0.9150 B( 26-C , 30-C ) :   1.2401 
B( 27-C , 28-C ) :   1.3514 B( 27-C , 29-H ) :   0.9482 B( 28-C , 30-C ) :   1.4296 
B( 28-C , 32-H ) :   0.9657 B( 30-C , 31-H ) :   0.9854 B( 34-C , 35-H ) :   0.9380 
B( 34-C , 36-H ) :   0.9368 B( 34-C , 37-H ) :   0.9329 B( 38-C , 39-C ) :   1.5605 
B( 38-C , 40-H ) :   0.9402 B( 38-C , 41-H ) :   0.9419 B( 39-C , 42-H ) :   0.9412 
B( 39-C , 43-H ) :   0.9434 

-------
TIMINGS
-------

Total SCF time: 0 days 0 hours 7 min 23 sec 

Total time                  ....     443.447 sec
Sum of individual times     ....     441.294 sec  ( 99.5%)

Fock matrix formation       ....     403.979 sec  ( 91.1%)
  Split-RI-J                ....      77.516 sec  ( 19.2% of F)
  XC integration            ....     254.194 sec  ( 62.9% of F)
    Basis function eval.    ....      53.019 sec  ( 20.9% of XC)
    Density eval.           ....     107.570 sec  ( 42.3% of XC)
    XC-Functional eval.     ....       6.116 sec  (  2.4% of XC)
    XC-Potential eval.      ....      83.764 sec  ( 33.0% of XC)
Diagonalization             ....       4.726 sec  (  1.1%)
Density matrix formation    ....       0.539 sec  (  0.1%)
Population analysis         ....       0.256 sec  (  0.1%)
Initial guess               ....       0.586 sec  (  0.1%)
Orbital Transformation      ....       0.000 sec  (  0.0%)
Orbital Orthonormalization  ....       0.000 sec  (  0.0%)
DIIS solution               ....       1.823 sec  (  0.4%)
Grid generation             ....      29.386 sec  (  6.6%)


-------------------------------------------------------------------------------
                          DFT DISPERSION CORRECTION                            
                                                                               
                              DFTD3 V3.1  Rev 1                                
                          USING Becke-Johnson damping                          
-------------------------------------------------------------------------------
The BP86 functional is recognized
Active option DFTDOPT                   ...         4   

molecular C6(AA) [au] = 28330.789509 


            DFT-D V3
 parameters
 s6 scaling factor         :     1.0000 
 a1 scaling factor         :     0.3946 
 s8 scaling factor         :     3.2822 
 a2 scaling factor         :     4.8516 
 ad hoc parameters k1-k3   :    16.0000     1.3333    -4.0000 

 Edisp/kcal,au: -76.593318770314  -0.122059209886 
 E6   /kcal   : -26.859346994 
 E8   /kcal   : -49.733971776 
 % E8         :  64.932519670 

-------------------------   ----------------
Dispersion correction           -0.122059210
-------------------------   ----------------


-------------------------   --------------------
FINAL SINGLE POINT ENERGY     -2326.874972294910
-------------------------   --------------------


                            ***************************************
                            *     ORCA property calculations      *
                            ***************************************

                                    ---------------------
                                    Active property flags
                                    ---------------------
   (+) Dipole Moment


------------------------------------------------------------------------------
                       ORCA ELECTRIC PROPERTIES CALCULATION
------------------------------------------------------------------------------

Dipole Moment Calculation                       ... on
Quadrupole Moment Calculation                   ... off
Polarizability Calculation                      ... off
GBWName                                         ... IM1_4F_Solv1.gbw
Electron density file                           ... IM1_4F_Solv1.scfp
The origin for moment calculation is the CENTER OF MASS  = (-0.985234, -3.432423 -1.365972)

-------------
DIPOLE MOMENT
-------------
                                X             Y             Z
Electronic contribution:      8.33360       0.52316       7.36640
Nuclear contribution   :     -8.07938      -0.96501      -7.45278
                        -----------------------------------------
Total Dipole Moment    :      0.25422      -0.44184      -0.08638
                        -----------------------------------------
Magnitude (a.u.)       :      0.51703
Magnitude (Debye)      :      1.31417



--------------------
Rotational spectrum 
--------------------
 
Rotational constants in cm-1:     0.010155     0.006147     0.004291 
Rotational constants in MHz :   304.436468   184.292391   128.631043 

 Dipole components along the rotational axes: 
x,y,z [a.u.] :     0.118605    -0.440539     0.243256 
x,y,z [Debye]:     0.301469    -1.119761     0.618307 

 

Timings for individual modules:

Sum of individual times         ...      444.110 sec (=   7.402 min)
GTO integral calculation        ...        0.650 sec (=   0.011 min)   0.1 %
SCF iterations                  ...      443.460 sec (=   7.391 min)  99.9 %
                             ****ORCA TERMINATED NORMALLY****
TOTAL RUN TIME: 0 days 0 hours 7 minutes 24 seconds 330 msec
