
                                 *****************
                                 * O   R   C   A *
                                 *****************

           --- An Ab Initio, DFT and Semiempirical electronic structure package ---

                  #######################################################
                  #                        -***-                        #
                  #          Department of theory and spectroscopy      #
                  #               Directorship: Frank Neese             #
                  #        Max Planck Institute fuer Kohlenforschung    #
                  #                Kaiser Wilhelm Platz 1               #
                  #                 D-45470 Muelheim/Ruhr               #
                  #                      Germany                        #
                  #                                                     #
                  #                  All rights reserved                #
                  #                        -***-                        #
                  #######################################################


                         Program Version 4.2.1 -  RELEASE  -


 With contributions from (in alphabetic order):
   Daniel Aravena         : Magnetic Suceptibility
   Michael Atanasov       : Ab Initio Ligand Field Theory (pilot matlab implementation)
   Alexander A. Auer      : GIAO ZORA, VPT2
   Ute Becker             : Parallelization
   Giovanni Bistoni       : ED, misc. LED, open-shell LED, HFLD
   Martin Brehm           : Molecular dynamics
   Dmytro Bykov           : SCF Hessian
   Vijay G. Chilkuri      : MRCI spin determinant printing, contributions to CSF-ICE
   Dipayan Datta          : RHF DLPNO-CCSD density
   Achintya Kumar Dutta   : EOM-CC, STEOM-CC
   Dmitry Ganyushin       : Spin-Orbit,Spin-Spin,Magnetic field MRCI
   Miquel Garcia          : C-PCM Hessian, Gaussian charge scheme
   Yang Guo               : DLPNO-NEVPT2, CIM, IAO-localization
   Andreas Hansen         : Spin unrestricted coupled pair/coupled cluster methods
   Benjamin Helmich-Paris : CASSCF linear response (MC-RPA)
   Lee Huntington         : MR-EOM, pCC
   Robert Izsak           : Overlap fitted RIJCOSX, COSX-SCS-MP3, EOM
   Christian Kollmar      : KDIIS, OOCD, Brueckner-CCSD(T), CCSD density
   Simone Kossmann        : Meta GGA functionals, TD-DFT gradient, OOMP2, MP2 Hessian
   Martin Krupicka        : AUTO-CI
   Lucas Lang             : DCDCAS
   Dagmar Lenk            : GEPOL surface, SMD
   Dimitrios Liakos       : Extrapolation schemes; Compound Job, initial MDCI parallelization
   Dimitrios Manganas     : Further ROCIS development; embedding schemes
   Dimitrios Pantazis     : SARC Basis sets
   Taras Petrenko         : DFT Hessian,TD-DFT gradient, ASA, ECA, R-Raman, ABS, FL, XAS/XES, NRVS
   Peter Pinski           : DLPNO-MP2, DLPNO-MP2 Gradient
   Christoph Reimann      : Effective Core Potentials
   Marius Retegan         : Local ZFS, SOC
   Christoph Riplinger    : Optimizer, TS searches, QM/MM, DLPNO-CCSD(T), (RO)-DLPNO pert. Triples
   Tobias Risthaus        : Range-separated hybrids, TD-DFT gradient, RPA, STAB
   Michael Roemelt        : Original ROCIS implementation
   Masaaki Saitow         : Open-shell DLPNO-CCSD energy and density
   Barbara Sandhoefer     : DKH picture change effects
   Avijit Sen             : IP-ROCIS
   Kantharuban Sivalingam : CASSCF convergence, NEVPT2, FIC-MRCI
   Bernardo de Souza      : ESD, SOC TD-DFT
   Georgi Stoychev        : AutoAux, RI-MP2 NMR
   Willem Van den Heuvel  : Paramagnetic NMR
   Boris Wezisla          : Elementary symmetry handling
   Frank Wennmohs         : Technical directorship


 We gratefully acknowledge several colleagues who have allowed us to
 interface, adapt or use parts of their codes:
   Stefan Grimme, W. Hujo, H. Kruse,             : VdW corrections, initial TS optimization,
                  C. Bannwarth                     DFT functionals, gCP, sTDA/sTD-DF
   Ed Valeev, F. Pavosevic, A. Kumar             : LibInt (2-el integral package), F12 methods
   Garnet Chan, S. Sharma, J. Yang, R. Olivares  : DMRG
   Ulf Ekstrom                                   : XCFun DFT Library
   Mihaly Kallay                                 : mrcc  (arbitrary order and MRCC methods)
   Andreas Klamt, Michael Diedenhofen            : otool_cosmo (COSMO solvation model)
   Jiri Pittner, Ondrej Demel                    : Mk-CCSD
   Frank Weinhold                                : gennbo (NPA and NBO analysis)
   Christopher J. Cramer and Donald G. Truhlar   : smd solvation model
   Lars Goerigk                                  : TD-DFT with DH, B97 family of functionals
   V. Asgeirsson, H. Jonsson                     : NEB implementation
   FAccTs GmbH                                   : IRC, NEB, NEB-TS, Multilevel, MM, QM/MM, CI optimization
   S Lehtola, MJT Oliveira, MAL Marques          : LibXC Library


 Your calculation uses the libint2 library for the computation of 2-el integrals
 For citations please refer to: http://libint.valeyev.net

 Your ORCA version has been built with support for libXC version: 4.2.3
 For citations please refer to: https://tddft.org/programs/libxc/

 This ORCA versions uses:
   CBLAS   interface :  Fast vector & matrix operations
   LAPACKE interface :  Fast linear algebra routines
   SCALAPACK package :  Parallel linear algebra routines


Your calculation utilizes the atom-pairwise dispersion correction
with the Becke-Johnson damping scheme (D3BJ)
Cite in your paper:
S.Grimme, S.Ehrlich, L.Goerigk, J Comput Chem, (2011), 32, 1456–1465 
S.Grimme, J.Antony, S.Ehrlich and H.Krieg, J.Chem.Phys., 132, (2010), 154104 
   

----- Orbital basis set information -----
Your calculation utilizes the basis: def2-TZVP
   F. Weigend and R. Ahlrichs, Phys. Chem. Chem. Phys. 7, 3297 (2005).

----- AuxJ basis set information -----
Your calculation utilizes the auxiliary basis: def2/J
   F. Weigend, Phys. Chem. Chem. Phys. 8, 1057 (2006).

================================================================================
                                        WARNINGS
                       Please study these warnings very carefully!
================================================================================


WARNING: your system is open-shell and RHF/RKS was chosen
  ===> : WILL SWITCH to UHF/UKS


INFO   : the flag for use of LIBINT has been found!

================================================================================
                                       INPUT FILE
================================================================================
NAME = IM2_4_Freq2.inp
|  1> #
|  2> # ORCA calc attempt 1 :-)
|  3> #
|  4> ! BP86 D3BJ RIJCOSX def2-TZVP def2/J Grid6 FinalGrid6 MORead Freq 
|  5> %moinp "IM2_4_Tight2.ges"
|  6> * xyz 1 4
|  7>   Cr  -0.32212848619893     -0.72724711733564     -2.36385631804102
|  8>   S   -2.47764816304550     -0.21122938106326     -1.36887024326964
|  9>   N   0.28178122737861     -0.67000728677869     -0.49306207110041
| 10>   N   1.61926103880722     -0.67596668625793     -2.76085351239177
| 11>   C   -3.59192817447922     -1.58243399171509     -1.67772098164674
| 12>   C   -3.50743709253489     -2.78142066457329     -0.96515300344657
| 13>   C   -4.50996410103892     -1.41290738453442     -2.71846698015892
| 14>   C   -4.36160222671514     -3.82911639750531     -1.30898930926318
| 15>   H   -2.79086435386482     -2.89383432711811     -0.15264845611697
| 16>   C   -5.34801097445788     -2.47707583346811     -3.05992925712074
| 17>   H   -4.57498395078794     -0.46269604320774     -3.25033815361373
| 18>   C   -5.27519695034864     -3.68231145997924     -2.35787634793187
| 19>   H   -4.30898532950166     -4.76644353402493     -0.75472945028860
| 20>   H   -5.93696494374143     -4.50695295453681     -2.62218889344009
| 21>   H   -6.06821183971833     -2.35447190851211     -3.86887444251201
| 22>   C   -1.97182591377039     -0.44723772290569      0.32584993827141
| 23>   C   -0.60498465258964     -0.65976255899105      0.59670471526231
| 24>   C   -0.21274090701982     -0.84990585200411      1.93290485575679
| 25>   C   -2.91759560692210     -0.38940076690664      1.35191900803279
| 26>   C   -2.51077996311668     -0.57508613638481      2.67123767813028
| 27>   H   -3.96563401740497     -0.21015603231078      1.11147337234467
| 28>   C   -1.15913734463913     -0.80757986424857      2.95302659278192
| 29>   H   0.82930202478283     -1.05080664659771      2.17812726366031
| 30>   H   -3.24352012384976     -0.53717694063124      3.47634274670834
| 31>   H   -0.83762686115396     -0.96228768937292      3.98295445184451
| 32>   C   1.61682420118661     -0.63420794675376     -0.38690138521263
| 33>   C   2.35814135326896     -0.64731456581800     -1.56697739440249
| 34>   C   2.51362532743239     -0.66412694559471     -3.77547779417378
| 35>   C   3.83364189584585     -0.62539689581587     -3.27022735439907
| 36>   H   2.19283726816559     -0.68803722462874     -4.81445950632874
| 37>   C   3.73998403040632     -0.61430463546022     -1.87736972225299
| 38>   H   4.55692114116316     -0.58092179072250     -1.16247577252329
| 39>   H   4.74016851273173     -0.60944867569571     -3.86679065134945
| 40>   H   2.09966484916984     -0.57576012898318      0.59063140857781
| 41>   C   -0.71885696476233     -2.58388978425274     -2.96225401046744
| 42>   H   -0.21468607598206     -2.56712086811666     -3.95121209736074
| 43>   H   -1.80804052336931     -2.66767864680013     -3.10567806102105
| 44>   C   -0.17076581474837     -3.67581651004624     -2.05965112573918
| 45>   C   -0.51535499243980     -5.08077781273627     -2.57862479112749
| 46>   H   -0.59019016359264     -3.55627732637080     -1.04714029046916
| 47>   H   0.92068054153854     -3.56943943299263     -1.96228234971408
| 48>   H   -1.60452719378867     -5.21242273285662     -2.65065343419926
| 49>   H   -0.11994969996235     -5.85304237618664     -1.90429214128714
| 50>   H   -0.08785000633210     -5.24915051920402     -3.57687672900064
| 51> *
| 52> 
| 53>                          ****END OF INPUT****
================================================================================

                       ****************************
                       * Single Point Calculation *
                       ****************************

---------------------------------
CARTESIAN COORDINATES (ANGSTROEM)
---------------------------------
  Cr    -0.322128   -0.727247   -2.363856
  S     -2.477648   -0.211229   -1.368870
  N      0.281781   -0.670007   -0.493062
  N      1.619261   -0.675967   -2.760854
  C     -3.591928   -1.582434   -1.677721
  C     -3.507437   -2.781421   -0.965153
  C     -4.509964   -1.412907   -2.718467
  C     -4.361602   -3.829116   -1.308989
  H     -2.790864   -2.893834   -0.152648
  C     -5.348011   -2.477076   -3.059929
  H     -4.574984   -0.462696   -3.250338
  C     -5.275197   -3.682311   -2.357876
  H     -4.308985   -4.766444   -0.754729
  H     -5.936965   -4.506953   -2.622189
  H     -6.068212   -2.354472   -3.868874
  C     -1.971826   -0.447238    0.325850
  C     -0.604985   -0.659763    0.596705
  C     -0.212741   -0.849906    1.932905
  C     -2.917596   -0.389401    1.351919
  C     -2.510780   -0.575086    2.671238
  H     -3.965634   -0.210156    1.111473
  C     -1.159137   -0.807580    2.953027
  H      0.829302   -1.050807    2.178127
  H     -3.243520   -0.537177    3.476343
  H     -0.837627   -0.962288    3.982954
  C      1.616824   -0.634208   -0.386901
  C      2.358141   -0.647315   -1.566977
  C      2.513625   -0.664127   -3.775478
  C      3.833642   -0.625397   -3.270227
  H      2.192837   -0.688037   -4.814460
  C      3.739984   -0.614305   -1.877370
  H      4.556921   -0.580922   -1.162476
  H      4.740169   -0.609449   -3.866791
  H      2.099665   -0.575760    0.590631
  C     -0.718857   -2.583890   -2.962254
  H     -0.214686   -2.567121   -3.951212
  H     -1.808041   -2.667679   -3.105678
  C     -0.170766   -3.675817   -2.059651
  C     -0.515355   -5.080778   -2.578625
  H     -0.590190   -3.556277   -1.047140
  H      0.920681   -3.569439   -1.962282
  H     -1.604527   -5.212423   -2.650653
  H     -0.119950   -5.853042   -1.904292
  H     -0.087850   -5.249151   -3.576877

----------------------------
CARTESIAN COORDINATES (A.U.)
----------------------------
  NO LB      ZA    FRAG     MASS         X           Y           Z
   0 Cr   24.0000    0    52.000   -0.608735   -1.374298   -4.467041
   1 S    16.0000    0    32.060   -4.682076   -0.399166   -2.586790
   2 N     7.0000    0    14.007    0.532489   -1.266130   -0.931752
   3 N     7.0000    0    14.007    3.059960   -1.277392   -5.217257
   4 C     6.0000    0    12.011   -6.787761   -2.990367   -3.170433
   5 C     6.0000    0    12.011   -6.628096   -5.256123   -1.823875
   6 C     6.0000    0    12.011   -8.522597   -2.670008   -5.137158
   7 C     6.0000    0    12.011   -8.242234   -7.235981   -2.473631
   8 H     1.0000    0     1.008   -5.273969   -5.468554   -0.288464
   9 C     6.0000    0    12.011  -10.106276   -4.680995   -5.782428
  10 H     1.0000    0     1.008   -8.645467   -0.874369   -6.142249
  11 C     6.0000    0    12.011   -9.968678   -6.958560   -4.455741
  12 H     1.0000    0     1.008   -8.142802   -9.007273   -1.426232
  13 H     1.0000    0     1.008  -11.219238   -8.516907   -4.955219
  14 H     1.0000    0     1.008  -11.467258   -4.449307   -7.311113
  15 C     6.0000    0    12.011   -3.726211   -0.845157    0.615767
  16 C     6.0000    0    12.011   -1.143255   -1.246771    1.127608
  17 C     6.0000    0    12.011   -0.402022   -1.606089    3.652661
  18 C     6.0000    0    12.011   -5.513457   -0.735861    2.554757
  19 C     6.0000    0    12.011   -4.744687   -1.086755    5.047908
  20 H     1.0000    0     1.008   -7.493962   -0.397137    2.100380
  21 C     6.0000    0    12.011   -2.190452   -1.526105    5.580412
  22 H     1.0000    0     1.008    1.567154   -1.985737    4.116064
  23 H     1.0000    0     1.008   -6.129365   -1.015117    6.569336
  24 H     1.0000    0     1.008   -1.582885   -1.818460    7.526693
  25 C     6.0000    0    12.011    3.055355   -1.198479   -0.731138
  26 C     6.0000    0    12.011    4.456241   -1.223247   -2.961158
  27 C     6.0000    0    12.011    4.750063   -1.255018   -7.134619
  28 C     6.0000    0    12.011    7.244533   -1.181829   -6.179834
  29 H     1.0000    0     1.008    4.143862   -1.300202   -9.098010
  30 C     6.0000    0    12.011    7.067546   -1.160868   -3.547715
  31 H     1.0000    0     1.008    8.611333   -1.097783   -2.196761
  32 H     1.0000    0     1.008    8.957620   -1.151691   -7.307175
  33 H     1.0000    0     1.008    3.967792   -1.088029    1.116132
  34 C     6.0000    0    12.011   -1.358443   -4.882844   -5.597849
  35 H     1.0000    0     1.008   -0.405698   -4.851155   -7.466709
  36 H     1.0000    0     1.008   -3.416701   -5.041182   -5.868881
  37 C     6.0000    0    12.011   -0.322701   -6.946287   -3.892177
  38 C     6.0000    0    12.011   -0.973880   -9.601279   -4.872895
  39 H     1.0000    0     1.008   -1.115298   -6.720390   -1.978808
  40 H     1.0000    0     1.008    1.739834   -6.745263   -3.708176
  41 H     1.0000    0     1.008   -3.032117   -9.850051   -5.009009
  42 H     1.0000    0     1.008   -0.226672  -11.060647   -3.598591
  43 H     1.0000    0     1.008   -0.166012   -9.919457   -6.759317

--------------------------------
INTERNAL COORDINATES (ANGSTROEM)
--------------------------------
 Cr     0   0   0     0.000000000000     0.00000000     0.00000000
 S      1   0   0     2.429513669525     0.00000000     0.00000000
 N      1   2   0     1.966686160713    82.91652304     0.00000000
 N      1   2   3     1.982228478944   160.99165660   314.75566002
 C      2   1   3     1.793658497805   108.55907675   243.75219266
 C      5   2   1     1.397304873024   122.04589277    75.88721858
 C      5   2   1     1.398099233394   116.32124176   258.98558667
 C      6   5   2     1.394807452823   118.80245177   183.37466311
 H      6   5   2     1.089163422432   120.58182665     3.67913382
 C      7   5   2     1.396915722705   118.91556067   176.10132238
 H      7   5   2     1.090878599661   120.51063936   355.69107041
 C     10   7   5     1.396700785716   120.21355121     0.75979787
 H      8   6   5     1.090208553442   119.40138339   180.43982387
 H     12  10   7     1.089876870724   119.95758937   179.47351481
 H     10   7   5     1.090006110856   119.47959657   179.90773937
 C      2   1   3     1.784273683885    96.27924975   350.61557138
 C      3   1   2     1.405009013844   122.97123381    12.73577287
 C     17   3   1     1.405503626204   124.07375989   168.59625422
 C     16   2   1     1.396654274287   120.02261851   186.11016822
 C     19  16   2     1.393046940254   119.50531144   180.00626035
 H     19  16   2     1.090104255771   119.72256981     0.64038939
 C     18  17   3     1.392158778563   120.18541669   179.21142501
 H     18  17   3     1.089196323133   120.39693571   358.00963880
 H     20  19  16     1.089283903179   119.92804273   180.35650890
 H     22  18  17     1.089979310363   119.17998224   179.68817807
 C      3   1   2     1.339735580586   112.46681603   193.11935932
 C     26   3   1     1.393665056927   117.56204095   359.76435137
 C      4   1   2     1.352586445817   142.94569390   225.54164890
 C     28   4   1     1.413938387814   110.45626401   180.30778600
 H     28   4   1     1.087639498457   121.42375535     0.00000000
 C     29  28   4     1.396046996854   107.10389383     0.05677717
 H     31  29  28     1.086081956675   127.33756573   180.36594017
 H     29  28   4     1.085326043231   125.71567311   179.95867096
 H     26   3   1     1.091843212958   120.86725170   178.51187241
 C      1   2   3     1.990626855194    98.30189710   111.28673377
 H     35   1   2     1.110183579087    99.39194177   139.37516711
 H     35   1   2     1.101776681594   107.88347777    25.21833687
 C     35   1   2     1.519012788210   114.82974537   259.16455267
 C     38  35   1     1.536877232835   112.06059640   179.89173295
 H     38  35   1     1.102444825094   109.29984816    59.07602444
 H     38  35   1     1.100932291160   109.92603409   302.41743492
 H     39  38  35     1.099461047335   110.71357704   300.74347403
 H     39  38  35     1.098845950951   110.76686858   180.69531161
 H     39  38  35     1.098916199215   111.07497205    60.61580826

---------------------------
INTERNAL COORDINATES (A.U.)
---------------------------
 Cr     0   0   0     0.000000000000     0.00000000     0.00000000
 S      1   0   0     4.591115474021     0.00000000     0.00000000
 N      1   2   0     3.716498235121    82.91652304     0.00000000
 N      1   2   3     3.745868960064   160.99165660   314.75566002
 C      2   1   3     3.389523338633   108.55907675   243.75219266
 C      5   2   1     2.640523535609   122.04589277    75.88721858
 C      5   2   1     2.642024659159   116.32124176   258.98558667
 C      6   5   2     2.635804095388   118.80245177   183.37466311
 H      6   5   2     2.058220583480   120.58182665     3.67913382
 C      7   5   2     2.639788148082   118.91556067   176.10132238
 H      7   5   2     2.061461798716   120.51063936   355.69107041
 C     10   7   5     2.639381976036   120.21355121     0.75979787
 H      8   6   5     2.060195594865   119.40138339   180.43982387
 H     12  10   7     2.059568805363   119.95758937   179.47351481
 H     10   7   5     2.059813033819   119.47959657   179.90773937
 C      2   1   3     3.371788610505    96.27924975   350.61557138
 C      3   1   2     2.655082251856   122.97123381    12.73577287
 C     17   3   1     2.656016933760   124.07375989   168.59625422
 C     16   2   1     2.639294082173   120.02261851   186.11016822
 C     19  16   2     2.632477208777   119.50531144   180.00626035
 H     19  16   2     2.059998500829   119.72256981     0.64038939
 C     18  17   3     2.630798826418   120.18541669   179.21142501
 H     18  17   3     2.058282756795   120.39693571   358.00963880
 H     20  19  16     2.058448259096   119.92804273   180.35650890
 H     22  18  17     2.059762388226   119.17998224   179.68817807
 C      3   1   2     2.531733339178   112.46681603   193.11935932
 C     26   3   1     2.633645280008   117.56204095   359.76435137
 C      4   1   2     2.556017955049   142.94569390   225.54164890
 C     28   4   1     2.671956323207   110.45626401   180.30778600
 H     28   4   1     2.055340784519   121.42375535     0.00000000
 C     29  28   4     2.638146494138   107.10389383     0.05677717
 H     31  29  28     2.052397457109   127.33756573   180.36594017
 H     29  28   4     2.050968987719   125.71567311   179.95867096
 H     26   3   1     2.063284653672   120.86725170   178.51187241
 C      1   2   3     3.761739591147    98.30189710   111.28673377
 H     35   1   2     2.097942922850    99.39194177   139.37516711
 H     35   1   2     2.082056188953   107.88347777    25.21833687
 C     35   1   2     2.870518163641   114.82974537   259.16455267
 C     38  35   1     2.904277071516   112.06059640   179.89173295
 H     38  35   1     2.083318797186   109.29984816    59.07602444
 H     38  35   1     2.080460522283   109.92603409   302.41743492
 H     39  38  35     2.077680274378   110.71357704   300.74347403
 H     39  38  35     2.076517910665   110.76686858   180.69531161
 H     39  38  35     2.076650660646   111.07497205    60.61580826

---------------------
BASIS SET INFORMATION
---------------------
There are 5 groups of distinct atoms

 Group   1 Type Cr  : 17s11p7d1f contracted to 6s4p4d1f pattern {842111/6311/4111/1}
 Group   2 Type S   : 14s9p3d1f contracted to 5s5p2d1f pattern {73211/51111/21/1}
 Group   3 Type N   : 11s6p2d1f contracted to 5s3p2d1f pattern {62111/411/11/1}
 Group   4 Type C   : 11s6p2d1f contracted to 5s3p2d1f pattern {62111/411/11/1}
 Group   5 Type H   : 5s1p contracted to 3s1p pattern {311/1}

Atom   0Cr   basis set group =>   1
Atom   1S    basis set group =>   2
Atom   2N    basis set group =>   3
Atom   3N    basis set group =>   3
Atom   4C    basis set group =>   4
Atom   5C    basis set group =>   4
Atom   6C    basis set group =>   4
Atom   7C    basis set group =>   4
Atom   8H    basis set group =>   5
Atom   9C    basis set group =>   4
Atom  10H    basis set group =>   5
Atom  11C    basis set group =>   4
Atom  12H    basis set group =>   5
Atom  13H    basis set group =>   5
Atom  14H    basis set group =>   5
Atom  15C    basis set group =>   4
Atom  16C    basis set group =>   4
Atom  17C    basis set group =>   4
Atom  18C    basis set group =>   4
Atom  19C    basis set group =>   4
Atom  20H    basis set group =>   5
Atom  21C    basis set group =>   4
Atom  22H    basis set group =>   5
Atom  23H    basis set group =>   5
Atom  24H    basis set group =>   5
Atom  25C    basis set group =>   4
Atom  26C    basis set group =>   4
Atom  27C    basis set group =>   4
Atom  28C    basis set group =>   4
Atom  29H    basis set group =>   5
Atom  30C    basis set group =>   4
Atom  31H    basis set group =>   5
Atom  32H    basis set group =>   5
Atom  33H    basis set group =>   5
Atom  34C    basis set group =>   4
Atom  35H    basis set group =>   5
Atom  36H    basis set group =>   5
Atom  37C    basis set group =>   4
Atom  38C    basis set group =>   4
Atom  39H    basis set group =>   5
Atom  40H    basis set group =>   5
Atom  41H    basis set group =>   5
Atom  42H    basis set group =>   5
Atom  43H    basis set group =>   5
---------------------------------
AUXILIARY/J BASIS SET INFORMATION
---------------------------------
There are 5 groups of distinct atoms

 Group   1 Type Cr  : 19s5p5d3f3g contracted to 8s5p5d2f3g pattern {121111111/11111/11111/21/111}
 Group   2 Type S   : 14s5p5d2f1g contracted to 8s4p3d1f1g pattern {71111111/2111/311/2/1}
 Group   3 Type N   : 12s5p4d2f1g contracted to 6s4p3d1f1g pattern {711111/2111/211/2/1}
 Group   4 Type C   : 12s5p4d2f1g contracted to 6s4p3d1f1g pattern {711111/2111/211/2/1}
 Group   5 Type H   : 5s2p1d contracted to 3s1p1d pattern {311/2/1}

Atom   0Cr   basis set group =>   1
Atom   1S    basis set group =>   2
Atom   2N    basis set group =>   3
Atom   3N    basis set group =>   3
Atom   4C    basis set group =>   4
Atom   5C    basis set group =>   4
Atom   6C    basis set group =>   4
Atom   7C    basis set group =>   4
Atom   8H    basis set group =>   5
Atom   9C    basis set group =>   4
Atom  10H    basis set group =>   5
Atom  11C    basis set group =>   4
Atom  12H    basis set group =>   5
Atom  13H    basis set group =>   5
Atom  14H    basis set group =>   5
Atom  15C    basis set group =>   4
Atom  16C    basis set group =>   4
Atom  17C    basis set group =>   4
Atom  18C    basis set group =>   4
Atom  19C    basis set group =>   4
Atom  20H    basis set group =>   5
Atom  21C    basis set group =>   4
Atom  22H    basis set group =>   5
Atom  23H    basis set group =>   5
Atom  24H    basis set group =>   5
Atom  25C    basis set group =>   4
Atom  26C    basis set group =>   4
Atom  27C    basis set group =>   4
Atom  28C    basis set group =>   4
Atom  29H    basis set group =>   5
Atom  30C    basis set group =>   4
Atom  31H    basis set group =>   5
Atom  32H    basis set group =>   5
Atom  33H    basis set group =>   5
Atom  34C    basis set group =>   4
Atom  35H    basis set group =>   5
Atom  36H    basis set group =>   5
Atom  37C    basis set group =>   4
Atom  38C    basis set group =>   4
Atom  39H    basis set group =>   5
Atom  40H    basis set group =>   5
Atom  41H    basis set group =>   5
Atom  42H    basis set group =>   5
Atom  43H    basis set group =>   5
------------------------------------------------------------------------------
                           ORCA GTO INTEGRAL CALCULATION
                           -- RI-GTO INTEGRALS CHOSEN --
------------------------------------------------------------------------------

                         BASIS SET STATISTICS AND STARTUP INFO

Gaussian basis set:
 # of primitive gaussian shells          ...  623
 # of primitive gaussian functions       ... 1327
 # of contracted shells                  ...  350
 # of contracted basis functions         ...  884
 Highest angular momentum                ...    3
 Maximum contraction depth               ...    8
Auxiliary gaussian basis set:
 # of primitive gaussian shells          ...  750
 # of primitive gaussian functions       ... 2044
 # of contracted shells                  ...  470
 # of contracted aux-basis functions     ... 1438
 Highest angular momentum                ...    4
 Maximum contraction depth               ...   12
Ratio of auxiliary to basis functions    ...  1.63
Integral package used                  ... LIBINT
 One Electron integrals                  ... done
 Ordering auxiliary basis shells         ... done
 Integral threshhold             Thresh  ...  1.000e-10
 Primitive cut-off               TCut    ...  1.000e-11
 Pre-screening matrix                    ... done
 Shell pair data                         ... 
 Ordering of the shell pairs             ... done (   0.005 sec) 43867 of 61425 pairs
 Determination of significant pairs      ... done (   0.000 sec)
 Creation of shell pair data             ... done (   0.003 sec)
 Storage of shell pair data              ... done (   0.004 sec)
 Shell pair data done in (   0.012 sec)
 Computing two index integrals           ... done
 Cholesky decomposition of the V-matrix  ... done


Timings:
 Total evaluation time                   ...   0.638 sec (  0.011 min)
 One electron matrix time                ...   0.211 sec (  0.004 min) = 33.0%
 Schwartz matrix evaluation time         ...   0.359 sec (  0.006 min) = 56.2%
 Two index repulsion integral time       ...   0.022 sec (  0.000 min) =  3.5%
 Cholesky decomposition of V             ...   0.024 sec (  0.000 min) =  3.8%
 Three index repulsion integral time     ...   0.000 sec (  0.000 min) =  0.0%

-------------------------------------------------------------------------------
                                 ORCA SCF
-------------------------------------------------------------------------------

------------
SCF SETTINGS
------------
Hamiltonian:
 Density Functional     Method          .... DFT(GTOs)
 Exchange Functional    Exchange        .... B88
   X-Alpha parameter    XAlpha          ....  0.666667
   Becke's b parameter  XBeta           ....  0.004200
 Correlation Functional Correlation     .... P86
 LDA part of GGA corr.  LDAOpt          .... PW91-LDA
 Gradients option       PostSCFGGA      .... off
   Density functional embedding theory  .... OFF
 RI-approximation to the Coulomb term is turned on
   Number of auxiliary basis functions  .... 1438
   RIJ-COSX (HFX calculated with COS-X)).... on


General Settings:
 Integral files         IntName         .... IM2_4_Freq2
 Hartree-Fock type      HFTyp           .... UHF
 Total Charge           Charge          ....    1
 Multiplicity           Mult            ....    4
 Number of Electrons    NEL             ....  193
 Basis Dimension        Dim             ....  884
 Nuclear Repulsion      ENuc            ....   2593.8669022730 Eh

Convergence Acceleration:
 DIIS                   CNVDIIS         .... on
   Start iteration      DIISMaxIt       ....    12
   Startup error        DIISStart       ....  0.200000
   # of expansion vecs  DIISMaxEq       ....     5
   Bias factor          DIISBfac        ....   1.050
   Max. coefficient     DIISMaxC        ....  10.000
 Newton-Raphson         CNVNR           .... off
 SOSCF                  CNVSOSCF        .... off
 Level Shifting         CNVShift        .... on
   Level shift para.    LevelShift      ....    0.2500
   Turn off err/grad.   ShiftErr        ....    0.0010
 Zerner damping         CNVZerner       .... off
 Static damping         CNVDamp         .... on
   Fraction old density DampFac         ....    0.7000
   Max. Damping (<1)    DampMax         ....    0.9800
   Min. Damping (>=0)   DampMin         ....    0.0000
   Turn off err/grad.   DampErr         ....    0.1000
 Fernandez-Rico         CNVRico         .... off

SCF Procedure:
 Maximum # iterations   MaxIter         ....   125
 SCF integral mode      SCFMode         .... Direct
   Integral package                     .... LIBINT
 Reset frequency        DirectResetFreq ....    20
 Integral Threshold     Thresh          ....  1.000e-10 Eh
 Primitive CutOff       TCut            ....  1.000e-11 Eh

Convergence Tolerance:
 Convergence Check Mode ConvCheckMode   .... Total+1el-Energy
 Convergence forced     ConvForced      .... 0
 Energy Change          TolE            ....  1.000e-06 Eh
 1-El. energy change                    ....  1.000e-03 Eh
 DIIS Error             TolErr          ....  1.000e-06


Diagonalization of the overlap matrix:
Smallest eigenvalue                        ... 6.067e-06
Time for diagonalization                   ...    0.081 sec
Threshold for overlap eigenvalues          ... 1.000e-08
Number of eigenvalues below threshold      ... 0
Time for construction of square roots      ...    0.053 sec
Total time needed                          ...    0.136 sec

---------------------
INITIAL GUESS: MOREAD
---------------------
Guess MOs are being read from file: IM2_4_Tight2.ges
Input Geometry matches current geometry (good)
Input basis set matches current basis set (good)
MOs were renormalized
MOs were reorthogonalized (Cholesky)
                      ------------------
                      INITIAL GUESS DONE (   0.3 sec)
                      ------------------
-------------------
DFT GRID GENERATION
-------------------

General Integration Accuracy     IntAcc      ...  5.340
Radial Grid Type                 RadialGrid  ... Gauss-Chebyshev
Angular Grid (max. acc.)         AngularGrid ... Lebedev-590
Angular grid pruning method      GridPruning ... 3 (G Style)
Weight generation scheme         WeightScheme... Becke
Basis function cutoff            BFCut       ...    1.0000e-10
Integration weight cutoff        WCut        ...    1.0000e-14
Grids for H and He will be reduced by one unit

# of grid points (after initial pruning)     ... 624918 (   0.3 sec)
# of grid points (after weights+screening)   ... 535298 (   3.6 sec)
nearest neighbour list constructed           ...    0.0 sec
Grid point re-assignment to atoms done       ...    0.0 sec
Grid point division into batches done        ...    3.3 sec
Reduced shell lists constructed in    9.2 sec

Total number of grid points                  ...   535298
Total number of batches                      ...     8388
Average number of points per batch           ...       63
Average number of grid points per atom       ...    12166
Average number of shells per batch           ...   128.04 (36.58%)
Average number of basis functions per batch  ...   310.29 (35.10%)
Average number of large shells per batch     ...    79.91 (62.41%)
Average number of large basis fcns per batch ...   196.92 (63.46%)
Maximum spatial batch extension              ...  24.34, 24.53, 21.61 au
Average spatial batch extension              ...   1.59,  1.64,  1.60 au

Time for grid setup =   13.222 sec

--------------------
COSX GRID GENERATION
--------------------

General Integration Accuracy     IntAcc      ...  3.340
Radial Grid Type                 RadialGrid  ... Gauss-Chebyshev
Angular Grid (max. acc.)         AngularGrid ... Lebedev-50
Angular grid pruning method      GridPruning ... 3 (G Style)
Weight generation scheme         WeightScheme... Becke
Basis function cutoff            BFCut       ...    1.0000e-10
Integration weight cutoff        WCut        ...    1.0000e-14
Grids for H and He will be reduced by one unit

# of grid points (after initial pruning)     ...  20880 (   0.0 sec)
# of grid points (after weights+screening)   ...  18733 (   0.1 sec)
nearest neighbour list constructed           ...    0.0 sec
Grid point re-assignment to atoms done       ...    0.0 sec
Grid point division into batches done        ...    0.0 sec
Reduced shell lists constructed in    0.3 sec

Total number of grid points                  ...    18733
Total number of batches                      ...      316
Average number of points per batch           ...       59
Average number of grid points per atom       ...      426
Average number of shells per batch           ...   164.21 (46.92%)
Average number of basis functions per batch  ...   408.17 (46.17%)
Average number of large shells per batch     ...   106.18 (64.66%)
Average number of large basis fcns per batch ...   266.43 (65.28%)
Maximum spatial batch extension              ...  17.49, 20.77, 16.15 au
Average spatial batch extension              ...   4.43,  5.07,  4.36 au

Overlap Fitting                  UseSFitting ... on
Constructing numerical overlap ... done (      0.2 sec)
Inverting numerical overlap    ... done (      0.0 sec)
Obtaining analytic overlap     ... done (      0.0 sec)
Final contraction and storage  ... done (      0.0 sec)


General Integration Accuracy     IntAcc      ...  3.670
Radial Grid Type                 RadialGrid  ... Gauss-Chebyshev
Angular Grid (max. acc.)         AngularGrid ... Lebedev-50
Angular grid pruning method      GridPruning ... 3 (G Style)
Weight generation scheme         WeightScheme... Becke
Basis function cutoff            BFCut       ...    1.0000e-10
Integration weight cutoff        WCut        ...    1.0000e-14
Grids for H and He will be reduced by one unit

# of grid points (after initial pruning)     ...  26376 (   0.0 sec)
# of grid points (after weights+screening)   ...  23581 (   0.1 sec)
nearest neighbour list constructed           ...    0.0 sec
Grid point re-assignment to atoms done       ...    0.0 sec
Grid point division into batches done        ...    0.0 sec
Reduced shell lists constructed in    0.3 sec

Total number of grid points                  ...    23581
Total number of batches                      ...      386
Average number of points per batch           ...       61
Average number of grid points per atom       ...      536
Average number of shells per batch           ...   160.48 (45.85%)
Average number of basis functions per batch  ...   397.84 (45.00%)
Average number of large shells per batch     ...   103.32 (64.38%)
Average number of large basis fcns per batch ...   259.23 (65.16%)
Maximum spatial batch extension              ...  17.79, 22.72, 16.71 au
Average spatial batch extension              ...   4.09,  4.72,  4.00 au

Overlap Fitting                  UseSFitting ... on
Constructing numerical overlap ... done (      0.3 sec)
Inverting numerical overlap    ... done (      0.0 sec)
Obtaining analytic overlap     ... done (      0.0 sec)
Final contraction and storage  ... done (      0.0 sec)


General Integration Accuracy     IntAcc      ...  4.010
Radial Grid Type                 RadialGrid  ... Gauss-Chebyshev
Angular Grid (max. acc.)         AngularGrid ... Lebedev-110
Angular grid pruning method      GridPruning ... 3 (G Style)
Weight generation scheme         WeightScheme... Becke
Basis function cutoff            BFCut       ...    1.0000e-10
Integration weight cutoff        WCut        ...    1.0000e-14
Grids for H and He will be reduced by one unit

# of grid points (after initial pruning)     ...  49892 (   0.0 sec)
# of grid points (after weights+screening)   ...  44287 (   0.3 sec)
nearest neighbour list constructed           ...    0.0 sec
Grid point re-assignment to atoms done       ...    0.0 sec
Grid point division into batches done        ...    0.0 sec
Reduced shell lists constructed in    0.6 sec

Total number of grid points                  ...    44287
Total number of batches                      ...      710
Average number of points per batch           ...       62
Average number of grid points per atom       ...     1007
Average number of shells per batch           ...   153.84 (43.95%)
Average number of basis functions per batch  ...   380.21 (43.01%)
Average number of large shells per batch     ...    98.60 (64.09%)
Average number of large basis fcns per batch ...   246.49 (64.83%)
Maximum spatial batch extension              ...  21.37, 22.89, 19.69 au
Average spatial batch extension              ...   3.49,  4.00,  3.52 au

Overlap Fitting                  UseSFitting ... on
Constructing numerical overlap ... done (      0.5 sec)
Inverting numerical overlap    ... done (      0.0 sec)
Obtaining analytic overlap     ... done (      0.0 sec)
Final contraction and storage  ... done (      0.0 sec)

Time for X-Grid setup             =    3.005 sec
--------------
SCF ITERATIONS
--------------
ITER       Energy         Delta-E        Max-DP      RMS-DP      [F,P]     Damp
               ***  Starting incremental Fock matrix formation  ***
  0  -2326.7063781145   0.000000000000 0.00035898  0.00000272  0.0000019 0.7000
                 **** Energy Check signals convergence ****

               *****************************************************
               *                     SUCCESS                       *
               *           SCF CONVERGED AFTER   1 CYCLES          *
               *****************************************************

Setting up the final grid:

General Integration Accuracy     IntAcc      ...  5.340
Radial Grid Type                 RadialGrid  ... Gauss-Chebyshev
Angular Grid (max. acc.)         AngularGrid ... Lebedev-590
Angular grid pruning method      GridPruning ... 3 (G Style)
Weight generation scheme         WeightScheme... Becke
Basis function cutoff            BFCut       ...    1.0000e-10
Integration weight cutoff        WCut        ...    1.0000e-14
Grids for H and He will be reduced by one unit

# of grid points (after initial pruning)     ... 624918 (   0.2 sec)
# of grid points (after weights+screening)   ... 535298 (   3.6 sec)
nearest neighbour list constructed           ...    0.0 sec
Grid point re-assignment to atoms done       ...    0.0 sec
Grid point division into batches done        ...    3.3 sec
Reduced shell lists constructed in    9.0 sec

Total number of grid points                  ...   535298
Total number of batches                      ...     8388
Average number of points per batch           ...       63
Average number of grid points per atom       ...    12166
Average number of shells per batch           ...   128.04 (36.58%)
Average number of basis functions per batch  ...   310.29 (35.10%)
Average number of large shells per batch     ...    79.91 (62.41%)
Average number of large basis fcns per batch ...   196.92 (63.46%)
Maximum spatial batch extension              ...  24.34, 24.53, 21.61 au
Average spatial batch extension              ...   1.59,  1.64,  1.60 au

Final grid set up in   12.9 sec
Final integration                            ... done (  23.8 sec)
Change in XC energy                          ...     0.000000365
Integrated number of electrons               ...   193.000080017
Previous integrated no of electrons          ...   193.000080022

----------------
TOTAL SCF ENERGY
----------------

Total Energy       :        -2326.70637739 Eh          -63312.89929 eV

Components:
Nuclear Repulsion  :         2593.86690227 Eh           70582.70677 eV
Electronic Energy  :        -4920.57327967 Eh         -133895.60606 eV
One Electron Energy:        -8321.27303765 Eh         -226433.35100 eV
Two Electron Energy:         3400.69975799 Eh           92537.74494 eV

Virial components:
Potential Energy   :        -4646.52435562 Eh         -126438.35572 eV
Kinetic Energy     :         2319.81797822 Eh           63125.45642 eV
Virial Ratio       :            2.00296937


DFT components:
N(Alpha)           :       98.000039716018 electrons
N(Beta)            :       95.000040301045 electrons
N(Total)           :      193.000080017062 electrons
E(X)               :     -196.862443509794 Eh       
E(C)               :       -7.458632285792 Eh       
E(XC)              :     -204.321075795586 Eh       
DFET-embed. en.    :        0.000000000000 Eh       

---------------
SCF CONVERGENCE
---------------

  Last Energy change         ...    3.5419e-07  Tolerance :   1.0000e-06
  Last MAX-Density change    ...    1.5728e-04  Tolerance :   1.0000e-05
  Last RMS-Density change    ...    1.1931e-06  Tolerance :   1.0000e-06
  Last DIIS Error            ...    1.3505e-06  Tolerance :   1.0000e-06

             **** THE GBW FILE WAS UPDATED (IM2_4_Freq2.gbw) ****
             **** DENSITY FILE WAS UPDATED (IM2_4_Freq2.scfp) ****
             **** ENERGY FILE WAS UPDATED (IM2_4_Freq2.en.tmp) ****
----------------------
UHF SPIN CONTAMINATION
----------------------

Warning: in a DFT calculation there is little theoretical justification to 
         calculate <S**2> as in Hartree-Fock theory. We will do it anyways
         but you should keep in mind that the values have only limited relevance

Expectation value of <S**2>     :     3.824056
Ideal value S*(S+1) for S=1.5   :     3.750000
Deviation                       :     0.074056

             **** THE GBW FILE WAS UPDATED (IM2_4_Freq2.gbw) ****
             **** DENSITY FILE WAS UPDATED (IM2_4_Freq2.scfp) ****
----------------
ORBITAL ENERGIES
----------------
                 SPIN UP ORBITALS
  NO   OCC          E(Eh)            E(eV) 
   0   1.0000    -214.700678     -5842.3025 
   1   1.0000     -88.269789     -2401.9431 
   2   1.0000     -24.431225      -664.8074 
   3   1.0000     -20.797388      -565.9257 
   4   1.0000     -20.793991      -565.8333 
   5   1.0000     -20.791105      -565.7547 
   6   1.0000     -14.171191      -385.6177 
   7   1.0000     -14.142878      -384.8473 
   8   1.0000     -10.090452      -274.5752 
   9   1.0000     -10.082710      -274.3645 
  10   1.0000     -10.068459      -273.9767 
  11   1.0000     -10.063975      -273.8547 
  12   1.0000     -10.056460      -273.6502 
  13   1.0000     -10.052659      -273.5468 
  14   1.0000     -10.036475      -273.1064 
  15   1.0000     -10.034241      -273.0456 
  16   1.0000     -10.030196      -272.9355 
  17   1.0000     -10.029906      -272.9276 
  18   1.0000     -10.028882      -272.8998 
  19   1.0000     -10.026313      -272.8299 
  20   1.0000     -10.025728      -272.8139 
  21   1.0000     -10.022076      -272.7146 
  22   1.0000     -10.021204      -272.6908 
  23   1.0000     -10.018319      -272.6123 
  24   1.0000     -10.013816      -272.4898 
  25   1.0000     -10.008103      -272.3343 
  26   1.0000     -10.007924      -272.3295 
  27   1.0000      -9.983782      -271.6725 
  28   1.0000      -7.849500      -213.5958 
  29   1.0000      -5.870107      -159.7337 
  30   1.0000      -5.866772      -159.6430 
  31   1.0000      -5.862407      -159.5242 
  32   1.0000      -2.912348       -79.2490 
  33   1.0000      -1.910425       -51.9853 
  34   1.0000      -1.902465       -51.7687 
  35   1.0000      -1.895485       -51.5788 
  36   1.0000      -1.021370       -27.7929 
  37   1.0000      -0.994925       -27.0733 
  38   1.0000      -0.928521       -25.2663 
  39   1.0000      -0.909121       -24.7384 
  40   1.0000      -0.866413       -23.5763 
  41   1.0000      -0.837369       -22.7860 
  42   1.0000      -0.819996       -22.3132 
  43   1.0000      -0.816522       -22.2187 
  44   1.0000      -0.810687       -22.0599 
  45   1.0000      -0.802065       -21.8253 
  46   1.0000      -0.787126       -21.4188 
  47   1.0000      -0.761921       -20.7329 
  48   1.0000      -0.724717       -19.7205 
  49   1.0000      -0.714171       -19.4336 
  50   1.0000      -0.685347       -18.6493 
  51   1.0000      -0.674339       -18.3497 
  52   1.0000      -0.668203       -18.1827 
  53   1.0000      -0.654765       -17.8171 
  54   1.0000      -0.640864       -17.4388 
  55   1.0000      -0.635394       -17.2899 
  56   1.0000      -0.615960       -16.7611 
  57   1.0000      -0.602657       -16.3991 
  58   1.0000      -0.597790       -16.2667 
  59   1.0000      -0.587245       -15.9798 
  60   1.0000      -0.559379       -15.2215 
  61   1.0000      -0.555459       -15.1148 
  62   1.0000      -0.535728       -14.5779 
  63   1.0000      -0.532710       -14.4958 
  64   1.0000      -0.529677       -14.4133 
  65   1.0000      -0.523866       -14.2551 
  66   1.0000      -0.520773       -14.1709 
  67   1.0000      -0.509470       -13.8634 
  68   1.0000      -0.504228       -13.7207 
  69   1.0000      -0.501405       -13.6439 
  70   1.0000      -0.493351       -13.4248 
  71   1.0000      -0.486038       -13.2258 
  72   1.0000      -0.483014       -13.1435 
  73   1.0000      -0.474036       -12.8992 
  74   1.0000      -0.471961       -12.8427 
  75   1.0000      -0.468490       -12.7483 
  76   1.0000      -0.463465       -12.6115 
  77   1.0000      -0.455782       -12.4025 
  78   1.0000      -0.451535       -12.2869 
  79   1.0000      -0.448856       -12.2140 
  80   1.0000      -0.444950       -12.1077 
  81   1.0000      -0.441630       -12.0174 
  82   1.0000      -0.431720       -11.7477 
  83   1.0000      -0.429170       -11.6783 
  84   1.0000      -0.425932       -11.5902 
  85   1.0000      -0.410794       -11.1783 
  86   1.0000      -0.408098       -11.1049 
  87   1.0000      -0.400295       -10.8926 
  88   1.0000      -0.370161       -10.0726 
  89   1.0000      -0.369388       -10.0515 
  90   1.0000      -0.366745        -9.9796 
  91   1.0000      -0.359717        -9.7884 
  92   1.0000      -0.356108        -9.6902 
  93   1.0000      -0.349437        -9.5087 
  94   1.0000      -0.341399        -9.2899 
  95   1.0000      -0.334777        -9.1097 
  96   1.0000      -0.320095        -8.7102 
  97   1.0000      -0.308782        -8.4024 
  98   0.0000      -0.261779        -7.1234 
  99   0.0000      -0.241746        -6.5782 
 100   0.0000      -0.210205        -5.7200 
 101   0.0000      -0.189402        -5.1539 
 102   0.0000      -0.176380        -4.7996 
 103   0.0000      -0.169629        -4.6158 
 104   0.0000      -0.157553        -4.2872 
 105   0.0000      -0.141455        -3.8492 
 106   0.0000      -0.131311        -3.5731 
 107   0.0000      -0.106033        -2.8853 
 108   0.0000      -0.105582        -2.8730 
 109   0.0000      -0.085449        -2.3252 
 110   0.0000      -0.078126        -2.1259 
 111   0.0000      -0.074253        -2.0205 
 112   0.0000      -0.072700        -1.9783 
 113   0.0000      -0.060828        -1.6552 
 114   0.0000      -0.055508        -1.5104 
 115   0.0000      -0.051333        -1.3968 
 116   0.0000      -0.046953        -1.2776 
 117   0.0000      -0.042490        -1.1562 
 118   0.0000      -0.038551        -1.0490 
 119   0.0000      -0.032895        -0.8951 
 120   0.0000      -0.031689        -0.8623 
 121   0.0000      -0.029229        -0.7954 
 122   0.0000      -0.024095        -0.6556 
 123   0.0000      -0.017521        -0.4768 
 124   0.0000      -0.016506        -0.4492 
 125   0.0000      -0.014041        -0.3821 
 126   0.0000      -0.013503        -0.3674 
 127   0.0000      -0.006921        -0.1883 
 128   0.0000      -0.005712        -0.1554 
 129   0.0000      -0.002368        -0.0644 
 130   0.0000       0.004099         0.1115 
 131   0.0000       0.011886         0.3234 
 132   0.0000       0.013074         0.3558 
 133   0.0000       0.015404         0.4192 
 134   0.0000       0.020549         0.5592 
 135   0.0000       0.024929         0.6784 
 136   0.0000       0.026601         0.7238 
 137   0.0000       0.030298         0.8244 
 138   0.0000       0.036080         0.9818 
 139   0.0000       0.044938         1.2228 
 140   0.0000       0.048281         1.3138 
 141   0.0000       0.052009         1.4152 
 142   0.0000       0.057102         1.5538 
 143   0.0000       0.058096         1.5809 
 144   0.0000       0.062255         1.6940 
 145   0.0000       0.065650         1.7864 
 146   0.0000       0.067149         1.8272 
 147   0.0000       0.069490         1.8909 
 148   0.0000       0.076588         2.0841 
 149   0.0000       0.078939         2.1480 
 150   0.0000       0.083675         2.2769 
 151   0.0000       0.088614         2.4113 
 152   0.0000       0.089314         2.4304 
 153   0.0000       0.091652         2.4940 
 154   0.0000       0.100263         2.7283 
 155   0.0000       0.103447         2.8149 
 156   0.0000       0.108151         2.9429 
 157   0.0000       0.110810         3.0153 
 158   0.0000       0.115275         3.1368 
 159   0.0000       0.116055         3.1580 
 160   0.0000       0.119240         3.2447 
 161   0.0000       0.121439         3.3045 
 162   0.0000       0.123491         3.3604 
 163   0.0000       0.125060         3.4031 
 164   0.0000       0.131231         3.5710 
 165   0.0000       0.134011         3.6466 
 166   0.0000       0.136007         3.7009 
 167   0.0000       0.140760         3.8303 
 168   0.0000       0.151949         4.1348 
 169   0.0000       0.153121         4.1666 
 170   0.0000       0.158085         4.3017 
 171   0.0000       0.164800         4.4844 
 172   0.0000       0.166659         4.5350 
 173   0.0000       0.167832         4.5670 
 174   0.0000       0.172629         4.6975 
 175   0.0000       0.177381         4.8268 
 176   0.0000       0.181308         4.9336 
 177   0.0000       0.186003         5.0614 
 178   0.0000       0.190552         5.1852 
 179   0.0000       0.195504         5.3199 
 180   0.0000       0.200723         5.4619 
 181   0.0000       0.204859         5.5745 
 182   0.0000       0.205240         5.5849 
 183   0.0000       0.212670         5.7870 
 184   0.0000       0.214969         5.8496 
 185   0.0000       0.220817         6.0087 
 186   0.0000       0.223228         6.0744 
 187   0.0000       0.226601         6.1661 
 188   0.0000       0.228250         6.2110 
 189   0.0000       0.229402         6.2424 
 190   0.0000       0.231265         6.2930 
 191   0.0000       0.244291         6.6475 
 192   0.0000       0.246582         6.7098 
 193   0.0000       0.250128         6.8063 
 194   0.0000       0.251492         6.8435 
 195   0.0000       0.255587         6.9549 
 196   0.0000       0.259166         7.0523 
 197   0.0000       0.260032         7.0758 
 198   0.0000       0.267140         7.2693 
 199   0.0000       0.272236         7.4079 
 200   0.0000       0.277544         7.5524 
 201   0.0000       0.280535         7.6337 
 202   0.0000       0.282739         7.6937 
 203   0.0000       0.283732         7.7208 
 204   0.0000       0.286480         7.7955 
 205   0.0000       0.288966         7.8632 
 206   0.0000       0.295022         8.0280 
 207   0.0000       0.300096         8.1660 
 208   0.0000       0.300629         8.1805 
 209   0.0000       0.305043         8.3007 
 210   0.0000       0.309610         8.4249 
 211   0.0000       0.310957         8.4616 
 212   0.0000       0.312894         8.5143 
 213   0.0000       0.316802         8.6206 
 214   0.0000       0.319614         8.6971 
 215   0.0000       0.322027         8.7628 
 216   0.0000       0.327569         8.9136 
 217   0.0000       0.330566         8.9952 
 218   0.0000       0.334797         9.1103 
 219   0.0000       0.338869         9.2211 
 220   0.0000       0.343661         9.3515 
 221   0.0000       0.346477         9.4281 
 222   0.0000       0.348761         9.4903 
 223   0.0000       0.352636         9.5957 
 224   0.0000       0.354779         9.6540 
 225   0.0000       0.356878         9.7111 
 226   0.0000       0.360758         9.8167 
 227   0.0000       0.364035         9.9059 
 228   0.0000       0.366221         9.9654 
 229   0.0000       0.369521        10.0552 
 230   0.0000       0.370547        10.0831 
 231   0.0000       0.376839        10.2543 
 232   0.0000       0.380302        10.3486 
 233   0.0000       0.387145        10.5347 
 234   0.0000       0.390416        10.6237 
 235   0.0000       0.397278        10.8105 
 236   0.0000       0.403338        10.9754 
 237   0.0000       0.408034        11.1032 
 238   0.0000       0.413552        11.2533 
 239   0.0000       0.417272        11.3546 
 240   0.0000       0.421504        11.4697 
 241   0.0000       0.427474        11.6322 
 242   0.0000       0.430175        11.7057 
 243   0.0000       0.435969        11.8633 
 244   0.0000       0.445347        12.1185 
 245   0.0000       0.449319        12.2266 
 246   0.0000       0.454733        12.3739 
 247   0.0000       0.457846        12.4586 
 248   0.0000       0.464141        12.6299 
 249   0.0000       0.471602        12.8329 
 250   0.0000       0.472890        12.8680 
 251   0.0000       0.478792        13.0286 
 252   0.0000       0.484133        13.1739 
 253   0.0000       0.484864        13.1938 
 254   0.0000       0.495333        13.4787 
 255   0.0000       0.500961        13.6319 
 256   0.0000       0.503231        13.6936 
 257   0.0000       0.510711        13.8972 
 258   0.0000       0.514022        13.9872 
 259   0.0000       0.524362        14.2686 
 260   0.0000       0.525039        14.2870 
 261   0.0000       0.527102        14.3432 
 262   0.0000       0.533692        14.5225 
 263   0.0000       0.537500        14.6261 
 264   0.0000       0.543722        14.7954 
 265   0.0000       0.548971        14.9383 
 266   0.0000       0.557047        15.1580 
 267   0.0000       0.562306        15.3011 
 268   0.0000       0.566665        15.4197 
 269   0.0000       0.570039        15.5116 
 270   0.0000       0.578210        15.7339 
 271   0.0000       0.586446        15.9580 
 272   0.0000       0.590270        16.0621 
 273   0.0000       0.595494        16.2042 
 274   0.0000       0.597939        16.2707 
 275   0.0000       0.607069        16.5192 
 276   0.0000       0.608270        16.5519 
 277   0.0000       0.612737        16.6734 
 278   0.0000       0.614184        16.7128 
 279   0.0000       0.618480        16.8297 
 280   0.0000       0.620620        16.8879 
 281   0.0000       0.625042        17.0082 
 282   0.0000       0.630087        17.1455 
 283   0.0000       0.639770        17.4090 
 284   0.0000       0.645382        17.5617 
 285   0.0000       0.649729        17.6800 
 286   0.0000       0.658767        17.9260 
 287   0.0000       0.663417        18.0525 
 288   0.0000       0.674746        18.3608 
 289   0.0000       0.679881        18.5005 
 290   0.0000       0.686626        18.6840 
 291   0.0000       0.691742        18.8232 
 292   0.0000       0.695905        18.9365 
 293   0.0000       0.698596        19.0098 
 294   0.0000       0.707548        19.2534 
 295   0.0000       0.712425        19.3861 
 296   0.0000       0.726141        19.7593 
 297   0.0000       0.732637        19.9361 
 298   0.0000       0.736671        20.0458 
 299   0.0000       0.740521        20.1506 
 300   0.0000       0.746246        20.3064 
 301   0.0000       0.749920        20.4064 
 302   0.0000       0.754555        20.5325 
 303   0.0000       0.764499        20.8031 
 304   0.0000       0.768727        20.9181 
 305   0.0000       0.770972        20.9792 
 306   0.0000       0.775728        21.1086 
 307   0.0000       0.783790        21.3280 
 308   0.0000       0.797927        21.7127 
 309   0.0000       0.802504        21.8372 
 310   0.0000       0.812163        22.1001 
 311   0.0000       0.824535        22.4367 
 312   0.0000       0.828743        22.5512 
 313   0.0000       0.832129        22.6434 
 314   0.0000       0.837281        22.7836 
 315   0.0000       0.841933        22.9102 
 316   0.0000       0.848897        23.0997 
 317   0.0000       0.862661        23.4742 
 318   0.0000       0.866424        23.5766 
 319   0.0000       0.872718        23.7479 
 320   0.0000       0.879150        23.9229 
 321   0.0000       0.882387        24.0110 
 322   0.0000       0.894921        24.3520 
 323   0.0000       0.899813        24.4852 
 324   0.0000       0.902528        24.5590 
 325   0.0000       0.916784        24.9470 
 326   0.0000       0.919640        25.0247 
 327   0.0000       0.925554        25.1856 
 328   0.0000       0.930925        25.3318 
 329   0.0000       0.938338        25.5335 
 330   0.0000       0.939701        25.5706 
 331   0.0000       0.942875        25.6569 
 332   0.0000       0.947802        25.7910 
 333   0.0000       0.959480        26.1088 
 334   0.0000       0.964911        26.2566 
 335   0.0000       0.968828        26.3631 
 336   0.0000       0.980545        26.6820 
 337   0.0000       0.986610        26.8470 
 338   0.0000       0.993276        27.0284 
 339   0.0000       1.000941        27.2370 
 340   0.0000       1.015835        27.6423 
 341   0.0000       1.017033        27.6749 
 342   0.0000       1.021665        27.8009 
 343   0.0000       1.027504        27.9598 
 344   0.0000       1.037802        28.2400 
 345   0.0000       1.040485        28.3130 
 346   0.0000       1.047792        28.5119 
 347   0.0000       1.054258        28.6878 
 348   0.0000       1.058511        28.8035 
 349   0.0000       1.060631        28.8612 
 350   0.0000       1.067542        29.0493 
 351   0.0000       1.070435        29.1280 
 352   0.0000       1.073788        29.2193 
 353   0.0000       1.082319        29.4514 
 354   0.0000       1.085188        29.5295 
 355   0.0000       1.088347        29.6154 
 356   0.0000       1.093130        29.7456 
 357   0.0000       1.105280        30.0762 
 358   0.0000       1.109194        30.1827 
 359   0.0000       1.111773        30.2529 
 360   0.0000       1.117818        30.4174 
 361   0.0000       1.122880        30.5551 
 362   0.0000       1.131483        30.7892 
 363   0.0000       1.135999        30.9121 
 364   0.0000       1.142783        31.0967 
 365   0.0000       1.143709        31.1219 
 366   0.0000       1.154851        31.4251 
 367   0.0000       1.167075        31.7577 
 368   0.0000       1.174378        31.9565 
 369   0.0000       1.181548        32.1516 
 370   0.0000       1.201973        32.7073 
 371   0.0000       1.206273        32.8243 
 372   0.0000       1.219862        33.1941 
 373   0.0000       1.230731        33.4899 
 374   0.0000       1.240199        33.7475 
 375   0.0000       1.242458        33.8090 
 376   0.0000       1.250857        34.0375 
 377   0.0000       1.260331        34.2954 
 378   0.0000       1.265981        34.4491 
 379   0.0000       1.271636        34.6030 
 380   0.0000       1.292039        35.1582 
 381   0.0000       1.293045        35.1855 
 382   0.0000       1.301068        35.4039 
 383   0.0000       1.304004        35.4838 
 384   0.0000       1.304335        35.4928 
 385   0.0000       1.310923        35.6720 
 386   0.0000       1.313939        35.7541 
 387   0.0000       1.316512        35.8241 
 388   0.0000       1.336065        36.3562 
 389   0.0000       1.338332        36.4179 
 390   0.0000       1.341333        36.4995 
 391   0.0000       1.347703        36.6729 
 392   0.0000       1.353238        36.8235 
 393   0.0000       1.359948        37.0061 
 394   0.0000       1.368713        37.2446 
 395   0.0000       1.375155        37.4199 
 396   0.0000       1.380978        37.5783 
 397   0.0000       1.382640        37.6235 
 398   0.0000       1.389836        37.8194 
 399   0.0000       1.396611        38.0037 
 400   0.0000       1.399454        38.0811 
 401   0.0000       1.404674        38.2231 
 402   0.0000       1.410031        38.3689 
 403   0.0000       1.412046        38.4237 
 404   0.0000       1.419243        38.6196 
 405   0.0000       1.427189        38.8358 
 406   0.0000       1.431313        38.9480 
 407   0.0000       1.436075        39.0776 
 408   0.0000       1.439303        39.1654 
 409   0.0000       1.443005        39.2662 
 410   0.0000       1.445877        39.3443 
 411   0.0000       1.450831        39.4791 
 412   0.0000       1.457047        39.6483 
 413   0.0000       1.467387        39.9296 
 414   0.0000       1.474240        40.1161 
 415   0.0000       1.477885        40.2153 
 416   0.0000       1.482595        40.3435 
 417   0.0000       1.493885        40.6507 
 418   0.0000       1.496588        40.7242 
 419   0.0000       1.501745        40.8646 
 420   0.0000       1.503722        40.9184 
 421   0.0000       1.509338        41.0712 
 422   0.0000       1.511744        41.1366 
 423   0.0000       1.516457        41.2649 
 424   0.0000       1.520460        41.3738 
 425   0.0000       1.522890        41.4399 
 426   0.0000       1.532854        41.7111 
 427   0.0000       1.537319        41.8326 
 428   0.0000       1.544400        42.0253 
 429   0.0000       1.547566        42.1114 
 430   0.0000       1.552978        42.2587 
 431   0.0000       1.564089        42.5610 
 432   0.0000       1.564271        42.5660 
 433   0.0000       1.571580        42.7649 
 434   0.0000       1.582291        43.0563 
 435   0.0000       1.586761        43.1780 
 436   0.0000       1.593938        43.3732 
 437   0.0000       1.597136        43.4603 
 438   0.0000       1.607873        43.7524 
 439   0.0000       1.610193        43.8156 
 440   0.0000       1.620765        44.1033 
 441   0.0000       1.623543        44.1789 
 442   0.0000       1.627794        44.2945 
 443   0.0000       1.638062        44.5739 
 444   0.0000       1.649173        44.8763 
 445   0.0000       1.658146        45.1205 
 446   0.0000       1.664444        45.2918 
 447   0.0000       1.668989        45.4155 
 448   0.0000       1.677461        45.6460 
 449   0.0000       1.680562        45.7304 
 450   0.0000       1.685178        45.8560 
 451   0.0000       1.689891        45.9843 
 452   0.0000       1.705036        46.3964 
 453   0.0000       1.717159        46.7263 
 454   0.0000       1.721976        46.8574 
 455   0.0000       1.735600        47.2281 
 456   0.0000       1.739109        47.3236 
 457   0.0000       1.747623        47.5552 
 458   0.0000       1.760747        47.9124 
 459   0.0000       1.765107        48.0310 
 460   0.0000       1.777243        48.3612 
 461   0.0000       1.779999        48.4362 
 462   0.0000       1.792916        48.7877 
 463   0.0000       1.804308        49.0977 
 464   0.0000       1.806950        49.1696 
 465   0.0000       1.812119        49.3103 
 466   0.0000       1.823492        49.6197 
 467   0.0000       1.829656        49.7875 
 468   0.0000       1.844857        50.2011 
 469   0.0000       1.851255        50.3752 
 470   0.0000       1.854716        50.4694 
 471   0.0000       1.857965        50.5578 
 472   0.0000       1.872766        50.9605 
 473   0.0000       1.878192        51.1082 
 474   0.0000       1.885369        51.3035 
 475   0.0000       1.895561        51.5808 
 476   0.0000       1.901166        51.7334 
 477   0.0000       1.904964        51.8367 
 478   0.0000       1.914191        52.0878 
 479   0.0000       1.916872        52.1607 
 480   0.0000       1.927814        52.4585 
 481   0.0000       1.930086        52.5203 
 482   0.0000       1.934930        52.6521 
 483   0.0000       1.944292        52.9069 
 484   0.0000       1.950643        53.0797 
 485   0.0000       1.952903        53.1412 
 486   0.0000       1.965057        53.4719 
 487   0.0000       1.968117        53.5552 
 488   0.0000       1.981568        53.9212 
 489   0.0000       1.988974        54.1227 
 490   0.0000       1.992389        54.2157 
 491   0.0000       1.999685        54.4142 
 492   0.0000       2.004313        54.5401 
 493   0.0000       2.006420        54.5975 
 494   0.0000       2.025995        55.1301 
 495   0.0000       2.042583        55.5815 
 496   0.0000       2.045743        55.6675 
 497   0.0000       2.048814        55.7511 
 498   0.0000       2.053515        55.8790 
 499   0.0000       2.063668        56.1553 
 500   0.0000       2.068012        56.2735 
 501   0.0000       2.074384        56.4469 
 502   0.0000       2.083202        56.6868 
 503   0.0000       2.091636        56.9163 
 504   0.0000       2.111988        57.4701 
 505   0.0000       2.113993        57.5247 
 506   0.0000       2.124967        57.8233 
 507   0.0000       2.135110        58.0993 
 508   0.0000       2.145715        58.3879 
 509   0.0000       2.159441        58.7614 
 510   0.0000       2.168671        59.0125 
 511   0.0000       2.179740        59.3138 
 512   0.0000       2.187346        59.5207 
 513   0.0000       2.189613        59.5824 
 514   0.0000       2.193333        59.6836 
 515   0.0000       2.211161        60.1688 
 516   0.0000       2.216592        60.3165 
 517   0.0000       2.225602        60.5617 
 518   0.0000       2.238435        60.9109 
 519   0.0000       2.243603        61.0515 
 520   0.0000       2.248302        61.1794 
 521   0.0000       2.259441        61.4825 
 522   0.0000       2.269467        61.7553 
 523   0.0000       2.277023        61.9610 
 524   0.0000       2.291339        62.3505 
 525   0.0000       2.302998        62.6678 
 526   0.0000       2.306776        62.7706 
 527   0.0000       2.312259        62.9198 
 528   0.0000       2.322581        63.2006 
 529   0.0000       2.330007        63.4027 
 530   0.0000       2.339773        63.6685 
 531   0.0000       2.345109        63.8137 
 532   0.0000       2.354113        64.0587 
 533   0.0000       2.357718        64.1568 
 534   0.0000       2.366738        64.4022 
 535   0.0000       2.369109        64.4667 
 536   0.0000       2.385357        64.9089 
 537   0.0000       2.387149        64.9576 
 538   0.0000       2.389457        65.0204 
 539   0.0000       2.394591        65.1601 
 540   0.0000       2.399674        65.2985 
 541   0.0000       2.406377        65.4808 
 542   0.0000       2.411444        65.6187 
 543   0.0000       2.415610        65.7321 
 544   0.0000       2.418681        65.8157 
 545   0.0000       2.426301        66.0230 
 546   0.0000       2.434862        66.2560 
 547   0.0000       2.437387        66.3247 
 548   0.0000       2.446586        66.5750 
 549   0.0000       2.451651        66.7128 
 550   0.0000       2.457789        66.8798 
 551   0.0000       2.460288        66.9479 
 552   0.0000       2.461806        66.9892 
 553   0.0000       2.467849        67.1536 
 554   0.0000       2.473258        67.3008 
 555   0.0000       2.484642        67.6105 
 556   0.0000       2.485609        67.6369 
 557   0.0000       2.486770        67.6684 
 558   0.0000       2.493992        67.8650 
 559   0.0000       2.499777        68.0224 
 560   0.0000       2.502836        68.1056 
 561   0.0000       2.504632        68.1545 
 562   0.0000       2.514470        68.4222 
 563   0.0000       2.518959        68.5443 
 564   0.0000       2.521160        68.6043 
 565   0.0000       2.524416        68.6929 
 566   0.0000       2.526547        68.7508 
 567   0.0000       2.533092        68.9289 
 568   0.0000       2.539173        69.0944 
 569   0.0000       2.547300        69.3156 
 570   0.0000       2.553208        69.4763 
 571   0.0000       2.560546        69.6760 
 572   0.0000       2.569351        69.9156 
 573   0.0000       2.573931        70.0402 
 574   0.0000       2.578115        70.1541 
 575   0.0000       2.593083        70.5614 
 576   0.0000       2.593846        70.5821 
 577   0.0000       2.599906        70.7470 
 578   0.0000       2.603574        70.8468 
 579   0.0000       2.607267        70.9473 
 580   0.0000       2.610197        71.0271 
 581   0.0000       2.612188        71.0813 
 582   0.0000       2.622462        71.3608 
 583   0.0000       2.628939        71.5371 
 584   0.0000       2.635973        71.7285 
 585   0.0000       2.641136        71.8690 
 586   0.0000       2.646962        72.0275 
 587   0.0000       2.652123        72.1679 
 588   0.0000       2.656304        72.2817 
 589   0.0000       2.660242        72.3889 
 590   0.0000       2.668495        72.6134 
 591   0.0000       2.676580        72.8334 
 592   0.0000       2.679035        72.9003 
 593   0.0000       2.680654        72.9443 
 594   0.0000       2.692868        73.2767 
 595   0.0000       2.698228        73.4225 
 596   0.0000       2.700715        73.4902 
 597   0.0000       2.705985        73.6336 
 598   0.0000       2.718822        73.9829 
 599   0.0000       2.722673        74.0877 
 600   0.0000       2.731108        74.3172 
 601   0.0000       2.741443        74.5984 
 602   0.0000       2.745543        74.7100 
 603   0.0000       2.748916        74.8018 
 604   0.0000       2.755133        74.9710 
 605   0.0000       2.760728        75.1232 
 606   0.0000       2.761094        75.1332 
 607   0.0000       2.766502        75.2803 
 608   0.0000       2.773062        75.4588 
 609   0.0000       2.780492        75.6610 
 610   0.0000       2.798070        76.1394 
 611   0.0000       2.799500        76.1783 
 612   0.0000       2.808318        76.4182 
 613   0.0000       2.816457        76.6397 
 614   0.0000       2.822539        76.8052 
 615   0.0000       2.832227        77.0688 
 616   0.0000       2.840797        77.3020 
 617   0.0000       2.849471        77.5381 
 618   0.0000       2.854099        77.6640 
 619   0.0000       2.865468        77.9734 
 620   0.0000       2.871401        78.1348 
 621   0.0000       2.879259        78.3486 
 622   0.0000       2.887853        78.5825 
 623   0.0000       2.898970        78.8850 
 624   0.0000       2.903117        78.9978 
 625   0.0000       2.905549        79.0640 
 626   0.0000       2.916289        79.3563 
 627   0.0000       2.917737        79.3957 
 628   0.0000       2.920798        79.4789 
 629   0.0000       2.924552        79.5811 
 630   0.0000       2.932261        79.7909 
 631   0.0000       2.933715        79.8304 
 632   0.0000       2.937788        79.9413 
 633   0.0000       2.941483        80.0418 
 634   0.0000       2.948874        80.2429 
 635   0.0000       2.949254        80.2533 
 636   0.0000       2.954909        80.4072 
 637   0.0000       2.960595        80.5619 
 638   0.0000       2.965618        80.6986 
 639   0.0000       2.972716        80.8917 
 640   0.0000       2.975183        80.9589 
 641   0.0000       2.976837        81.0038 
 642   0.0000       2.988377        81.3179 
 643   0.0000       2.993350        81.4532 
 644   0.0000       2.998332        81.5888 
 645   0.0000       3.004823        81.7654 
 646   0.0000       3.010556        81.9214 
 647   0.0000       3.015509        82.0562 
 648   0.0000       3.027741        82.3890 
 649   0.0000       3.031708        82.4970 
 650   0.0000       3.037933        82.6664 
 651   0.0000       3.045086        82.8610 
 652   0.0000       3.054740        83.1237 
 653   0.0000       3.061362        83.3039 
 654   0.0000       3.065966        83.4292 
 655   0.0000       3.067317        83.4659 
 656   0.0000       3.072278        83.6009 
 657   0.0000       3.082745        83.8857 
 658   0.0000       3.086035        83.9753 
 659   0.0000       3.087548        84.0164 
 660   0.0000       3.093452        84.1771 
 661   0.0000       3.094632        84.2092 
 662   0.0000       3.100170        84.3599 
 663   0.0000       3.104705        84.4833 
 664   0.0000       3.111005        84.6548 
 665   0.0000       3.118993        84.8721 
 666   0.0000       3.123412        84.9924 
 667   0.0000       3.136212        85.3407 
 668   0.0000       3.140138        85.4475 
 669   0.0000       3.143882        85.5494 
 670   0.0000       3.155523        85.8661 
 671   0.0000       3.157146        85.9103 
 672   0.0000       3.163185        86.0746 
 673   0.0000       3.166461        86.1638 
 674   0.0000       3.172742        86.3347 
 675   0.0000       3.183652        86.6316 
 676   0.0000       3.191468        86.8443 
 677   0.0000       3.193337        86.8951 
 678   0.0000       3.197544        87.0096 
 679   0.0000       3.200664        87.0945 
 680   0.0000       3.208879        87.3180 
 681   0.0000       3.213121        87.4335 
 682   0.0000       3.219734        87.6134 
 683   0.0000       3.221746        87.6682 
 684   0.0000       3.223813        87.7244 
 685   0.0000       3.229385        87.8760 
 686   0.0000       3.233590        87.9904 
 687   0.0000       3.240008        88.1651 
 688   0.0000       3.243797        88.2682 
 689   0.0000       3.246874        88.3519 
 690   0.0000       3.252277        88.4990 
 691   0.0000       3.260175        88.7139 
 692   0.0000       3.265544        88.8600 
 693   0.0000       3.270815        89.0034 
 694   0.0000       3.273922        89.0879 
 695   0.0000       3.289632        89.5155 
 696   0.0000       3.294442        89.6463 
 697   0.0000       3.299791        89.7919 
 698   0.0000       3.305292        89.9416 
 699   0.0000       3.307285        89.9958 
 700   0.0000       3.314512        90.1925 
 701   0.0000       3.316797        90.2546 
 702   0.0000       3.322349        90.4057 
 703   0.0000       3.331200        90.6466 
 704   0.0000       3.333793        90.7171 
 705   0.0000       3.342105        90.9433 
 706   0.0000       3.348173        91.1084 
 707   0.0000       3.350617        91.1749 
 708   0.0000       3.354613        91.2837 
 709   0.0000       3.369782        91.6964 
 710   0.0000       3.371436        91.7414 
 711   0.0000       3.391553        92.2888 
 712   0.0000       3.405509        92.6686 
 713   0.0000       3.412584        92.8611 
 714   0.0000       3.416389        92.9647 
 715   0.0000       3.426962        93.2524 
 716   0.0000       3.429650        93.3255 
 717   0.0000       3.451552        93.9215 
 718   0.0000       3.462592        94.2219 
 719   0.0000       3.479582        94.6842 
 720   0.0000       3.485310        94.8401 
 721   0.0000       3.492159        95.0265 
 722   0.0000       3.500086        95.2422 
 723   0.0000       3.506886        95.4272 
 724   0.0000       3.514597        95.6371 
 725   0.0000       3.520628        95.8012 
 726   0.0000       3.534057        96.1666 
 727   0.0000       3.550369        96.6104 
 728   0.0000       3.561724        96.9194 
 729   0.0000       3.565856        97.0319 
 730   0.0000       3.595082        97.8271 
 731   0.0000       3.604811        98.0919 
 732   0.0000       3.636390        98.9512 
 733   0.0000       3.653587        99.4192 
 734   0.0000       3.656420        99.4963 
 735   0.0000       3.663761        99.6960 
 736   0.0000       3.667610        99.8007 
 737   0.0000       3.686856       100.3245 
 738   0.0000       3.701530       100.7238 
 739   0.0000       3.704628       100.8081 
 740   0.0000       3.719911       101.2239 
 741   0.0000       3.732682       101.5714 
 742   0.0000       3.736409       101.6729 
 743   0.0000       3.750336       102.0518 
 744   0.0000       3.769538       102.5743 
 745   0.0000       3.779418       102.8432 
 746   0.0000       3.781513       102.9002 
 747   0.0000       3.786029       103.0231 
 748   0.0000       3.806585       103.5824 
 749   0.0000       3.810221       103.6814 
 750   0.0000       3.829624       104.2094 
 751   0.0000       3.845545       104.6426 
 752   0.0000       3.850152       104.7680 
 753   0.0000       3.854716       104.8922 
 754   0.0000       3.867260       105.2335 
 755   0.0000       3.884603       105.7054 
 756   0.0000       3.891173       105.8842 
 757   0.0000       3.901069       106.1535 
 758   0.0000       3.914147       106.5094 
 759   0.0000       3.917619       106.6038 
 760   0.0000       3.934990       107.0765 
 761   0.0000       3.945289       107.3568 
 762   0.0000       3.956391       107.6589 
 763   0.0000       3.959767       107.7507 
 764   0.0000       3.977989       108.2466 
 765   0.0000       3.982164       108.3602 
 766   0.0000       3.985821       108.4597 
 767   0.0000       3.989875       108.5700 
 768   0.0000       3.992881       108.6518 
 769   0.0000       3.996975       108.7632 
 770   0.0000       4.002914       108.9248 
 771   0.0000       4.006155       109.0130 
 772   0.0000       4.014975       109.2530 
 773   0.0000       4.027198       109.5856 
 774   0.0000       4.036041       109.8263 
 775   0.0000       4.044018       110.0433 
 776   0.0000       4.048134       110.1553 
 777   0.0000       4.060715       110.4977 
 778   0.0000       4.067475       110.6816 
 779   0.0000       4.078383       110.9785 
 780   0.0000       4.089276       111.2749 
 781   0.0000       4.094101       111.4062 
 782   0.0000       4.122581       112.1811 
 783   0.0000       4.126263       112.2813 
 784   0.0000       4.130173       112.3877 
 785   0.0000       4.135917       112.5440 
 786   0.0000       4.154524       113.0504 
 787   0.0000       4.163459       113.2935 
 788   0.0000       4.166493       113.3760 
 789   0.0000       4.176940       113.6603 
 790   0.0000       4.181288       113.7786 
 791   0.0000       4.209368       114.5427 
 792   0.0000       4.245620       115.5292 
 793   0.0000       4.249708       115.6404 
 794   0.0000       4.302606       117.0799 
 795   0.0000       4.343901       118.2036 
 796   0.0000       4.347939       118.3134 
 797   0.0000       4.363613       118.7400 
 798   0.0000       4.375135       119.0535 
 799   0.0000       4.390831       119.4806 
 800   0.0000       4.402074       119.7865 
 801   0.0000       4.421282       120.3092 
 802   0.0000       4.434164       120.6597 
 803   0.0000       4.441575       120.8614 
 804   0.0000       4.455488       121.2400 
 805   0.0000       4.469987       121.6345 
 806   0.0000       4.479223       121.8859 
 807   0.0000       4.498301       122.4050 
 808   0.0000       4.505195       122.5926 
 809   0.0000       4.513326       122.8139 
 810   0.0000       4.515415       122.8707 
 811   0.0000       4.530540       123.2823 
[...]


-----------
IR SPECTRUM
-----------

 Mode    freq (cm**-1)   T**2         TX         TY         TZ
-------------------------------------------------------------------
   6:        10.51    0.063021  ( -0.130382   0.096695  -0.191499)
   7:        15.09    0.259064  ( -0.457148  -0.189067  -0.119720)
   8:        35.57    0.036242  (  0.048272   0.155021   0.099399)
   9:        46.77    0.084181  ( -0.120213  -0.166732  -0.204769)
  10:        56.66    0.136143  ( -0.104847  -0.255749  -0.244424)
  11:        60.06    0.121313  ( -0.003681  -0.346969   0.030207)
  12:        66.82    0.324986  ( -0.187502   0.534423  -0.064969)
  13:        95.83    0.014585  (  0.045518   0.078254   0.079932)
  14:       114.52    0.699565  (  0.128844  -0.761813  -0.320319)
  15:       137.67    0.645299  (  0.380110   0.477038  -0.522733)
  16:       146.24    2.651008  ( -0.607854   0.963710   1.163093)
  17:       157.87    0.157725  ( -0.118185   0.371585   0.075375)
  18:       173.27    4.707833  (  0.194518  -2.118686   0.425634)
  19:       196.58    1.079641  ( -0.749623   0.533020   0.483317)
  20:       206.10    0.923911  ( -0.863266   0.129253  -0.402462)
  21:       211.20    0.591245  ( -0.164356   0.591417  -0.463097)
  22:       247.04    0.081030  ( -0.155340  -0.226495   0.074831)
  23:       257.57    2.712739  (  0.157157  -0.221992   1.624426)
  24:       282.84    1.871498  ( -0.494546  -1.260457   0.195372)
  25:       288.87    3.015123  (  0.819177   1.498119  -0.315774)
  26:       300.22    1.691432  ( -0.931801  -0.906123   0.046042)
  27:       308.49    9.744464  ( -2.877993   0.056364   1.207660)
  28:       345.34    8.041134  ( -2.248816  -1.050165  -1.371537)
  29:       373.62   12.124742  (  0.760639  -3.366005  -0.464952)
  30:       386.50    3.294121  ( -1.385215   0.950586  -0.686794)
  31:       394.90    0.611366  ( -0.584258  -0.488988  -0.175782)
  32:       417.21    6.286819  (  2.259925   1.064536   0.215223)
  33:       442.75    6.732999  (  2.246883   1.095957   0.695267)
  34:       453.84    9.238128  ( -0.715648   2.308402   1.843165)
  35:       485.64    2.050809  ( -0.440630  -0.620180   1.213273)
  36:       522.75    7.711186  (  0.007156  -2.568353  -1.055792)
  37:       525.59    1.164426  (  0.192991  -0.056747   1.060170)
  38:       573.31    7.325514  ( -0.432664  -2.661576   0.233085)
  39:       579.98    3.091991  ( -1.738996  -0.229368   0.123593)
  40:       587.21    5.510856  (  2.285804   0.138754   0.516435)
  41:       607.50    0.217895  (  0.425135   0.043938  -0.187683)
  42:       622.65   12.915212  ( -3.410442  -0.225097   1.110597)
  43:       668.62    5.727248  (  0.215998   2.351101   0.391044)
  44:       679.94    3.192916  ( -0.952766   1.217430   0.896113)
  45:       684.47   17.674103  ( -2.879929   1.051623   2.876491)
  46:       688.80    9.738010  (  2.574084   1.509870   0.912357)
  47:       714.12   11.361118  (  0.918531  -2.828416  -1.586658)
  48:       732.39   32.326820  (  4.833964  -0.757408  -2.895849)
  49:       734.24   12.402401  (  2.505206  -1.317735  -2.095213)
  50:       743.32   19.095058  ( -1.534395  -4.085871  -0.215285)
  51:       747.67   80.304008  (  0.164245   8.959532   0.061770)
  52:       778.51    6.755822  (  2.300317   0.025598  -1.209838)
  53:       819.32    0.162849  (  0.279195  -0.255968  -0.139212)
  54:       829.00    1.915173  ( -0.430570  -1.290611   0.253192)
  55:       838.62    0.160298  ( -0.168219  -0.185896   0.312159)
  56:       880.56    0.140927  ( -0.097330   0.087417  -0.351870)
  57:       882.36    3.471723  ( -1.488950  -0.376870  -1.054855)
  58:       883.58    0.039615  (  0.076307  -0.141482   0.117367)
  59:       895.55   16.463534  (  0.944619  -0.976450  -3.823320)
  60:       897.90    2.038927  ( -0.870872   0.153976   1.121071)
  61:       901.85    7.585806  ( -0.418691  -2.698473   0.358814)
  62:       905.65    0.738814  (  0.469909  -0.502132  -0.515619)
  63:       928.49    0.797136  ( -0.227386   0.695643   0.511384)
  64:       946.64    0.245058  (  0.444529   0.106499   0.190026)
  65:       963.06    0.018058  (  0.100303   0.087423  -0.018814)
  66:       975.03    0.031367  ( -0.024746   0.172858  -0.029580)
  67:       977.05   17.338083  (  3.666585   0.821412  -1.794303)
  68:       978.04   51.756444  (  7.083815   0.325148  -1.212552)
  69:       991.26   10.544077  ( -2.675942  -1.232447  -1.365462)
  70:      1019.53    2.604719  (  1.195132   0.890771   0.618794)
  71:      1024.56   11.993883  ( -2.879582  -1.012720  -1.635936)
  72:      1032.42    2.680892  (  0.808708  -0.092365  -1.420687)
  73:      1042.56    3.122770  ( -0.889165   0.302930   1.496793)
  74:      1050.10  110.888825  (  9.140335   0.370059  -5.215953)
  75:      1060.35    0.221583  ( -0.207125  -0.417978  -0.063057)
  76:      1078.84    4.385989  (  0.665278  -1.325421   1.478733)
  77:      1081.87    8.308071  ( -2.633907  -0.129346   1.163560)
  78:      1097.91   37.037188  (  2.131647   5.430481   1.732959)
  79:      1124.16    1.737888  (  0.209758  -0.727082   1.079464)
  80:      1159.55    0.116717  ( -0.175856  -0.196371  -0.217325)
  81:      1161.30    0.048622  ( -0.179525   0.074761  -0.103942)
  82:      1171.74    2.720003  ( -1.589156   0.108447  -0.427583)
  83:      1177.25    3.405229  ( -0.879966  -1.107370  -1.185168)
  84:      1178.36   19.990978  (  0.021015  -0.290904  -4.461604)
  85:      1202.69   19.744541  (  3.917593   0.050081  -2.096306)
  86:      1250.84   57.570256  ( -7.251350  -0.453148   2.186968)
  87:      1263.44   37.613708  ( -5.124584  -0.929522   3.238570)
  88:      1275.06   87.405329  (  5.908312  -0.673454  -7.214127)
  89:      1275.94   49.152012  (  4.563228   0.374744  -5.309287)
  90:      1290.26    1.521765  (  0.850906   0.420880  -0.787772)
  91:      1299.85    1.570288  ( -0.097198  -1.038892   0.693933)
  92:      1316.72    8.441135  ( -1.746689  -0.470928  -2.273420)
  93:      1333.81    6.726934  ( -0.000666   0.734718  -2.487393)
  94:      1338.89    2.289277  (  0.765311  -0.207195  -1.288661)
  95:      1356.01    1.076132  ( -0.869025  -0.561326   0.076422)
  96:      1371.45    8.789702  ( -1.347033  -0.776165   2.524435)
  97:      1383.59   88.958132  ( -1.825007  -0.046931   9.253393)
  98:      1418.31   71.693857  (  8.116625   1.563867  -1.835369)
  99:      1433.82   16.092304  ( -3.814738   1.237593   0.091881)
 100:      1435.58    3.585525  ( -0.868169  -1.392586  -0.944728)
 101:      1437.32    5.692768  (  0.212502  -1.675969   1.684855)
 102:      1445.48    7.092953  ( -2.293717  -0.009508   1.353412)
 103:      1454.42    6.973059  (  0.957525   0.526909   2.403866)
 104:      1459.02   73.251894  ( -6.536188  -0.459369   5.506280)
 105:      1463.79   21.191299  ( -3.343429  -2.939387  -1.171660)
 106:      1475.05  126.580467  ( -8.159782  -0.008833   7.745860)
 107:      1560.11   44.969896  (  6.049895  -0.048915  -2.892451)
 108:      1568.88  110.071773  (  8.006541   1.461669  -6.620468)
 109:      1572.29   13.623361  (  0.663791  -0.143782  -3.627957)
 110:      1577.00   12.903327  ( -3.235250   0.571021   1.452728)
 111:      1593.02  266.610432  ( 13.515419   1.970231  -8.947741)
 112:      2888.57   12.124640  (  0.668443   2.562187  -2.261200)
 113:      2952.30    9.269373  (  0.391265   0.020914   3.019246)
 114:      2967.15   26.810138  (  0.964160   4.656285   2.049278)
 115:      2983.25    1.112567  ( -0.966872   0.000054   0.421575)
 116:      3001.63    6.024029  (  2.448865  -0.037122  -0.160347)
 117:      3040.05   20.923766  (  4.306053  -1.411579  -0.623792)
 118:      3043.50   12.326906  (  0.220123   1.161826  -3.305845)
 119:      3104.77    0.339900  (  0.198232   0.279797   0.471505)
 120:      3106.65    0.148469  (  0.110297   0.368022  -0.029386)
 121:      3113.43    0.130294  ( -0.209279  -0.111788   0.272028)
 122:      3116.52    0.788105  ( -0.648832  -0.127635   0.592311)
 123:      3121.41    0.696862  ( -0.597631  -0.026224   0.582246)
 124:      3122.29    0.872716  ( -0.053262   0.686266  -0.631600)
 125:      3128.82    1.741051  ( -0.888662   0.659202  -0.718877)
 126:      3131.24    1.027374  (  1.003127  -0.027566   0.142655)
 127:      3135.73    2.507161  ( -1.189035  -0.950235  -0.436361)
 128:      3139.76    0.629030  ( -0.282096  -0.231156  -0.704286)
 129:      3154.10    0.042862  (  0.021472   0.130575  -0.159222)
 130:      3172.52    0.185032  ( -0.029342  -0.018065  -0.428771)
 131:      3188.99    0.670732  ( -0.814559   0.041812   0.074007)

The first frequency considered to be a vibration is 6
The total number of vibrations considered is 126


--------------------------
THERMOCHEMISTRY AT 298.15K
--------------------------

Temperature         ... 298.15 K
Pressure            ... 1.00 atm
Total Mass          ... 372.45 AMU

Throughout the following assumptions are being made:
  (1) The electronic state is orbitally nondegenerate
      but the spin degeneracy is treated
  (2) There are no thermally accessible electronically excited states
  (3) Hindered rotations indicated by low frequency modes are not
      treated as such but are treated as vibrations and this may
      cause some error
  (4) All equations used are the standard statistical mechanics
      equations for an ideal gas
  (5) All vibrations are strictly harmonic

freq.      10.51  E(vib)   ...       0.58 
freq.      15.09  E(vib)   ...       0.57 
freq.      35.57  E(vib)   ...       0.54 
freq.      46.77  E(vib)   ...       0.53 
freq.      56.66  E(vib)   ...       0.52 
freq.      60.06  E(vib)   ...       0.51 
freq.      66.82  E(vib)   ...       0.50 
freq.      95.83  E(vib)   ...       0.47 
freq.     114.52  E(vib)   ...       0.44 
freq.     137.67  E(vib)   ...       0.42 
freq.     146.24  E(vib)   ...       0.41 
freq.     157.87  E(vib)   ...       0.40 
freq.     173.27  E(vib)   ...       0.38 
freq.     196.58  E(vib)   ...       0.36 
freq.     206.10  E(vib)   ...       0.35 
freq.     211.20  E(vib)   ...       0.34 
freq.     247.04  E(vib)   ...       0.31 
freq.     257.57  E(vib)   ...       0.30 
freq.     282.84  E(vib)   ...       0.28 
freq.     288.87  E(vib)   ...       0.27 
freq.     300.22  E(vib)   ...       0.26 
freq.     308.49  E(vib)   ...       0.26 
freq.     345.34  E(vib)   ...       0.23 
freq.     373.62  E(vib)   ...       0.21 
freq.     386.50  E(vib)   ...       0.20 
freq.     394.90  E(vib)   ...       0.20 
freq.     417.21  E(vib)   ...       0.18 
freq.     442.75  E(vib)   ...       0.17 
freq.     453.84  E(vib)   ...       0.16 
freq.     485.64  E(vib)   ...       0.15 
freq.     522.75  E(vib)   ...       0.13 
freq.     525.59  E(vib)   ...       0.13 
freq.     573.31  E(vib)   ...       0.11 
freq.     579.98  E(vib)   ...       0.11 
freq.     587.21  E(vib)   ...       0.10 
freq.     607.50  E(vib)   ...       0.10 
freq.     622.65  E(vib)   ...       0.09 
freq.     668.62  E(vib)   ...       0.08 
freq.     679.94  E(vib)   ...       0.08 
freq.     684.47  E(vib)   ...       0.07 
freq.     688.80  E(vib)   ...       0.07 
freq.     714.12  E(vib)   ...       0.07 
freq.     732.39  E(vib)   ...       0.06 
freq.     734.24  E(vib)   ...       0.06 
freq.     743.32  E(vib)   ...       0.06 
freq.     747.67  E(vib)   ...       0.06 
freq.     778.51  E(vib)   ...       0.05 
freq.     819.32  E(vib)   ...       0.05 
freq.     829.00  E(vib)   ...       0.04 
freq.     838.62  E(vib)   ...       0.04 
freq.     880.56  E(vib)   ...       0.04 
freq.     882.36  E(vib)   ...       0.04 
freq.     883.58  E(vib)   ...       0.04 
freq.     895.55  E(vib)   ...       0.03 
freq.     897.90  E(vib)   ...       0.03 
freq.     901.85  E(vib)   ...       0.03 
freq.     905.65  E(vib)   ...       0.03 
freq.     928.49  E(vib)   ...       0.03 
freq.     946.64  E(vib)   ...       0.03 
freq.     963.06  E(vib)   ...       0.03 
freq.     975.03  E(vib)   ...       0.03 
freq.     977.05  E(vib)   ...       0.03 
freq.     978.04  E(vib)   ...       0.03 
freq.     991.26  E(vib)   ...       0.02 
freq.    1019.53  E(vib)   ...       0.02 
freq.    1024.56  E(vib)   ...       0.02 
freq.    1032.42  E(vib)   ...       0.02 
freq.    1042.56  E(vib)   ...       0.02 
freq.    1050.10  E(vib)   ...       0.02 
freq.    1060.35  E(vib)   ...       0.02 
freq.    1078.84  E(vib)   ...       0.02 
freq.    1081.87  E(vib)   ...       0.02 
freq.    1097.91  E(vib)   ...       0.02 
freq.    1124.16  E(vib)   ...       0.01 
freq.    1159.55  E(vib)   ...       0.01 
freq.    1161.30  E(vib)   ...       0.01 
freq.    1171.74  E(vib)   ...       0.01 
freq.    1177.25  E(vib)   ...       0.01 
freq.    1178.36  E(vib)   ...       0.01 
freq.    1202.69  E(vib)   ...       0.01 
freq.    1250.84  E(vib)   ...       0.01 
freq.    1263.44  E(vib)   ...       0.01 
freq.    1275.06  E(vib)   ...       0.01 
freq.    1275.94  E(vib)   ...       0.01 
freq.    1290.26  E(vib)   ...       0.01 
freq.    1299.85  E(vib)   ...       0.01 
freq.    1316.72  E(vib)   ...       0.01 
freq.    1333.81  E(vib)   ...       0.01 
freq.    1338.89  E(vib)   ...       0.01 
freq.    1356.01  E(vib)   ...       0.01 
freq.    1371.45  E(vib)   ...       0.01 
freq.    1383.59  E(vib)   ...       0.00 
freq.    1418.31  E(vib)   ...       0.00 
freq.    1433.82  E(vib)   ...       0.00 
freq.    1435.58  E(vib)   ...       0.00 
freq.    1437.32  E(vib)   ...       0.00 
freq.    1445.48  E(vib)   ...       0.00 
freq.    1454.42  E(vib)   ...       0.00 
freq.    1459.02  E(vib)   ...       0.00 
freq.    1463.79  E(vib)   ...       0.00 
freq.    1475.05  E(vib)   ...       0.00 
freq.    1560.11  E(vib)   ...       0.00 
freq.    1568.88  E(vib)   ...       0.00 
freq.    1572.29  E(vib)   ...       0.00 
freq.    1577.00  E(vib)   ...       0.00 
freq.    1593.02  E(vib)   ...       0.00 
freq.    2888.57  E(vib)   ...       0.00 
freq.    2952.30  E(vib)   ...       0.00 
freq.    2967.15  E(vib)   ...       0.00 
freq.    2983.25  E(vib)   ...       0.00 
freq.    3001.63  E(vib)   ...       0.00 
freq.    3040.05  E(vib)   ...       0.00 
freq.    3043.50  E(vib)   ...       0.00 
freq.    3104.77  E(vib)   ...       0.00 
freq.    3106.65  E(vib)   ...       0.00 
freq.    3113.43  E(vib)   ...       0.00 
freq.    3116.52  E(vib)   ...       0.00 
freq.    3121.41  E(vib)   ...       0.00 
freq.    3122.29  E(vib)   ...       0.00 
freq.    3128.82  E(vib)   ...       0.00 
freq.    3131.24  E(vib)   ...       0.00 
freq.    3135.73  E(vib)   ...       0.00 
freq.    3139.76  E(vib)   ...       0.00 
freq.    3154.10  E(vib)   ...       0.00 
freq.    3172.52  E(vib)   ...       0.00 
freq.    3188.99  E(vib)   ...       0.00 

------------
INNER ENERGY
------------

The inner energy is: U= E(el) + E(ZPE) + E(vib) + E(rot) + E(trans)
    E(el)   - is the total energy from the electronic structure calculation
              = E(kin-el) + E(nuc-el) + E(el-el) + E(nuc-nuc)
    E(ZPE)  - the the zero temperature vibrational energy from the frequency calculation
    E(vib)  - the the finite temperature correction to E(ZPE) due to population
              of excited vibrational states
    E(rot)  - is the rotational thermal energy
    E(trans)- is the translational thermal energy

Summary of contributions to the inner energy U:
Electronic energy                ...  -2326.82420727 Eh
Zero point energy                ...      0.34019063 Eh     213.47 kcal/mol
Thermal vibrational correction   ...      0.02050287 Eh      12.87 kcal/mol
Thermal rotational correction    ...      0.00141627 Eh       0.89 kcal/mol
Thermal translational correction ...      0.00141627 Eh       0.89 kcal/mol
-----------------------------------------------------------------------
Total thermal energy                  -2326.46068123 Eh


Summary of corrections to the electronic energy:
(perhaps to be used in another calculation)
Total thermal correction                  0.02333541 Eh      14.64 kcal/mol
Non-thermal (ZPE) correction              0.34019063 Eh     213.47 kcal/mol
-----------------------------------------------------------------------
Total correction                          0.36352604 Eh     228.12 kcal/mol


--------
ENTHALPY
--------

The enthalpy is H = U + kB*T
                kB is Boltzmann's constant
Total free energy                 ...  -2326.46068123 Eh 
Thermal Enthalpy correction       ...      0.00094421 Eh       0.59 kcal/mol
-----------------------------------------------------------------------
Total Enthalpy                    ...  -2326.45973702 Eh


Note: Only C1 symmetry has been detected, increase convergence thresholds 
      if your molecule has a higher symmetry. Symmetry factor of 1.0 is   
      used for the rotational entropy correction. 
 

Note: Rotational entropy computed according to Herzberg 
Infrared and Raman Spectra, Chapter V,1, Van Nostrand Reinhold, 1945 
Point Group:  C1, Symmetry Number:   1  
Rotational constants in cm-1:     0.009820     0.005861     0.004517 

Vibrational entropy computed according to the QRRHO of S. Grimme
Chem.Eur.J. 2012 18 9955


-------
ENTROPY
-------

The entropy contributions are T*S = T*(S(el)+S(vib)+S(rot)+S(trans))
     S(el)   - electronic entropy
     S(vib)  - vibrational entropy
     S(rot)  - rotational entropy
     S(trans)- translational entropy
The entropies will be listed as mutliplied by the temperature to get
units of energy

Electronic entropy                ...      0.00130891 Eh      0.82 kcal/mol
Vibrational entropy               ...      0.03689428 Eh     23.15 kcal/mol
Rotational entropy                ...      0.01666894 Eh     10.46 kcal/mol
Translational entropy             ...      0.02073356 Eh     13.01 kcal/mol
-----------------------------------------------------------------------
Final entropy term                ...      0.07560569 Eh     47.44 kcal/mol

In case the symmetry of your molecule has not been determined correctly
or in case you have a reason to use a different symmetry number we print 
out the resulting rotational entropy values for sn=1,12 :
 --------------------------------------------------------
|  sn= 1 | S(rot)=       0.01666894 Eh     10.46 kcal/mol|
|  sn= 2 | S(rot)=       0.01601448 Eh     10.05 kcal/mol|
|  sn= 3 | S(rot)=       0.01563165 Eh      9.81 kcal/mol|
|  sn= 4 | S(rot)=       0.01536003 Eh      9.64 kcal/mol|
|  sn= 5 | S(rot)=       0.01514934 Eh      9.51 kcal/mol|
|  sn= 6 | S(rot)=       0.01497720 Eh      9.40 kcal/mol|
|  sn= 7 | S(rot)=       0.01483165 Eh      9.31 kcal/mol|
|  sn= 8 | S(rot)=       0.01470557 Eh      9.23 kcal/mol|
|  sn= 9 | S(rot)=       0.01459436 Eh      9.16 kcal/mol|
|  sn=10 | S(rot)=       0.01449488 Eh      9.10 kcal/mol|
|  sn=11 | S(rot)=       0.01440489 Eh      9.04 kcal/mol|
|  sn=12 | S(rot)=       0.01432274 Eh      8.99 kcal/mol|
 --------------------------------------------------------


-------------------
GIBBS FREE ENERGY
-------------------

The Gibbs free energy is G = H - T*S

Total enthalpy                    ...  -2326.45973702 Eh 
Total entropy correction          ...     -0.07560569 Eh    -47.44 kcal/mol
-----------------------------------------------------------------------
Final Gibbs free energy         ...  -2326.53534271 Eh

For completeness - the Gibbs free energy minus the electronic energy
G-E(el)                           ...      0.28886456 Eh    181.26 kcal/mol


Timings for individual modules:

Sum of individual times         ...    46034.535 sec (= 767.242 min)
GTO integral calculation        ...        0.649 sec (=   0.011 min)   0.0 %
SCF iterations                  ...       97.220 sec (=   1.620 min)   0.2 %
Analytical frequency calculation...    45936.665 sec (= 765.611 min)  99.8 %
                             ****ORCA TERMINATED NORMALLY****
TOTAL RUN TIME: 0 days 12 hours 47 minutes 15 seconds 643 msec
