
                                 *****************
                                 * O   R   C   A *
                                 *****************

           --- An Ab Initio, DFT and Semiempirical electronic structure package ---

                  #######################################################
                  #                        -***-                        #
                  #          Department of theory and spectroscopy      #
                  #               Directorship: Frank Neese             #
                  #        Max Planck Institute fuer Kohlenforschung    #
                  #                Kaiser Wilhelm Platz 1               #
                  #                 D-45470 Muelheim/Ruhr               #
                  #                      Germany                        #
                  #                                                     #
                  #                  All rights reserved                #
                  #                        -***-                        #
                  #######################################################


                         Program Version 4.2.1 -  RELEASE  -


 With contributions from (in alphabetic order):
   Daniel Aravena         : Magnetic Suceptibility
   Michael Atanasov       : Ab Initio Ligand Field Theory (pilot matlab implementation)
   Alexander A. Auer      : GIAO ZORA, VPT2
   Ute Becker             : Parallelization
   Giovanni Bistoni       : ED, misc. LED, open-shell LED, HFLD
   Martin Brehm           : Molecular dynamics
   Dmytro Bykov           : SCF Hessian
   Vijay G. Chilkuri      : MRCI spin determinant printing, contributions to CSF-ICE
   Dipayan Datta          : RHF DLPNO-CCSD density
   Achintya Kumar Dutta   : EOM-CC, STEOM-CC
   Dmitry Ganyushin       : Spin-Orbit,Spin-Spin,Magnetic field MRCI
   Miquel Garcia          : C-PCM Hessian, Gaussian charge scheme
   Yang Guo               : DLPNO-NEVPT2, CIM, IAO-localization
   Andreas Hansen         : Spin unrestricted coupled pair/coupled cluster methods
   Benjamin Helmich-Paris : CASSCF linear response (MC-RPA)
   Lee Huntington         : MR-EOM, pCC
   Robert Izsak           : Overlap fitted RIJCOSX, COSX-SCS-MP3, EOM
   Christian Kollmar      : KDIIS, OOCD, Brueckner-CCSD(T), CCSD density
   Simone Kossmann        : Meta GGA functionals, TD-DFT gradient, OOMP2, MP2 Hessian
   Martin Krupicka        : AUTO-CI
   Lucas Lang             : DCDCAS
   Dagmar Lenk            : GEPOL surface, SMD
   Dimitrios Liakos       : Extrapolation schemes; Compound Job, initial MDCI parallelization
   Dimitrios Manganas     : Further ROCIS development; embedding schemes
   Dimitrios Pantazis     : SARC Basis sets
   Taras Petrenko         : DFT Hessian,TD-DFT gradient, ASA, ECA, R-Raman, ABS, FL, XAS/XES, NRVS
   Peter Pinski           : DLPNO-MP2, DLPNO-MP2 Gradient
   Christoph Reimann      : Effective Core Potentials
   Marius Retegan         : Local ZFS, SOC
   Christoph Riplinger    : Optimizer, TS searches, QM/MM, DLPNO-CCSD(T), (RO)-DLPNO pert. Triples
   Tobias Risthaus        : Range-separated hybrids, TD-DFT gradient, RPA, STAB
   Michael Roemelt        : Original ROCIS implementation
   Masaaki Saitow         : Open-shell DLPNO-CCSD energy and density
   Barbara Sandhoefer     : DKH picture change effects
   Avijit Sen             : IP-ROCIS
   Kantharuban Sivalingam : CASSCF convergence, NEVPT2, FIC-MRCI
   Bernardo de Souza      : ESD, SOC TD-DFT
   Georgi Stoychev        : AutoAux, RI-MP2 NMR
   Willem Van den Heuvel  : Paramagnetic NMR
   Boris Wezisla          : Elementary symmetry handling
   Frank Wennmohs         : Technical directorship


 We gratefully acknowledge several colleagues who have allowed us to
 interface, adapt or use parts of their codes:
   Stefan Grimme, W. Hujo, H. Kruse,             : VdW corrections, initial TS optimization,
                  C. Bannwarth                     DFT functionals, gCP, sTDA/sTD-DF
   Ed Valeev, F. Pavosevic, A. Kumar             : LibInt (2-el integral package), F12 methods
   Garnet Chan, S. Sharma, J. Yang, R. Olivares  : DMRG
   Ulf Ekstrom                                   : XCFun DFT Library
   Mihaly Kallay                                 : mrcc  (arbitrary order and MRCC methods)
   Andreas Klamt, Michael Diedenhofen            : otool_cosmo (COSMO solvation model)
   Jiri Pittner, Ondrej Demel                    : Mk-CCSD
   Frank Weinhold                                : gennbo (NPA and NBO analysis)
   Christopher J. Cramer and Donald G. Truhlar   : smd solvation model
   Lars Goerigk                                  : TD-DFT with DH, B97 family of functionals
   V. Asgeirsson, H. Jonsson                     : NEB implementation
   FAccTs GmbH                                   : IRC, NEB, NEB-TS, Multilevel, MM, QM/MM, CI optimization
   S Lehtola, MJT Oliveira, MAL Marques          : LibXC Library


 Your calculation uses the libint2 library for the computation of 2-el integrals
 For citations please refer to: http://libint.valeyev.net

 Your ORCA version has been built with support for libXC version: 4.2.3
 For citations please refer to: https://tddft.org/programs/libxc/

 This ORCA versions uses:
   CBLAS   interface :  Fast vector & matrix operations
   LAPACKE interface :  Fast linear algebra routines
   SCALAPACK package :  Parallel linear algebra routines


Your calculation utilizes the atom-pairwise dispersion correction
with the Becke-Johnson damping scheme (D3BJ)
Cite in your paper:
S.Grimme, S.Ehrlich, L.Goerigk, J Comput Chem, (2011), 32, 1456–1465 
S.Grimme, J.Antony, S.Ehrlich and H.Krieg, J.Chem.Phys., 132, (2010), 154104 
   

Your calculation utilizes the SMD solvation module
Please cite in your paper:
A.V. Marenich, C.J. Cramer, D.G. Truhlar J. Phys. Chem. B, 113, (2009), 6378 

----- Orbital basis set information -----
Your calculation utilizes the basis: def2-TZVP
   F. Weigend and R. Ahlrichs, Phys. Chem. Chem. Phys. 7, 3297 (2005).

----- AuxJ basis set information -----
Your calculation utilizes the auxiliary basis: def2/J
   F. Weigend, Phys. Chem. Chem. Phys. 8, 1057 (2006).

================================================================================
                                        WARNINGS
                       Please study these warnings very carefully!
================================================================================


WARNING: your system is open-shell and RHF/RKS was chosen
  ===> : WILL SWITCH to UHF/UKS


INFO   : the flag for use of LIBINT has been found!

================================================================================
                                       INPUT FILE
================================================================================
NAME = IM2_4_Solv.inp
|  1> #
|  2> # ORCA calc attempt 1 :-)
|  3> #
|  4> ! BP86 D3BJ RIJCOSX def2-TZVP def2/J Grid6 FinalGrid6 MORead CPCM TightSCF 
|  5> %moinp "IM2_4_Tight2.ges"
|  6> %cpcm
|  7> smd true
|  8> SMDsolvent "Toluene"
|  9> end
| 10> * xyz 1 4
| 11>   Cr  -0.32212848619893     -0.72724711733564     -2.36385631804102
| 12>   S   -2.47764816304550     -0.21122938106326     -1.36887024326964
| 13>   N   0.28178122737861     -0.67000728677869     -0.49306207110041
| 14>   N   1.61926103880722     -0.67596668625793     -2.76085351239177
| 15>   C   -3.59192817447922     -1.58243399171509     -1.67772098164674
| 16>   C   -3.50743709253489     -2.78142066457329     -0.96515300344657
| 17>   C   -4.50996410103892     -1.41290738453442     -2.71846698015892
| 18>   C   -4.36160222671514     -3.82911639750531     -1.30898930926318
| 19>   H   -2.79086435386482     -2.89383432711811     -0.15264845611697
| 20>   C   -5.34801097445788     -2.47707583346811     -3.05992925712074
| 21>   H   -4.57498395078794     -0.46269604320774     -3.25033815361373
| 22>   C   -5.27519695034864     -3.68231145997924     -2.35787634793187
| 23>   H   -4.30898532950166     -4.76644353402493     -0.75472945028860
| 24>   H   -5.93696494374143     -4.50695295453681     -2.62218889344009
| 25>   H   -6.06821183971833     -2.35447190851211     -3.86887444251201
| 26>   C   -1.97182591377039     -0.44723772290569      0.32584993827141
| 27>   C   -0.60498465258964     -0.65976255899105      0.59670471526231
| 28>   C   -0.21274090701982     -0.84990585200411      1.93290485575679
| 29>   C   -2.91759560692210     -0.38940076690664      1.35191900803279
| 30>   C   -2.51077996311668     -0.57508613638481      2.67123767813028
| 31>   H   -3.96563401740497     -0.21015603231078      1.11147337234467
| 32>   C   -1.15913734463913     -0.80757986424857      2.95302659278192
| 33>   H   0.82930202478283     -1.05080664659771      2.17812726366031
| 34>   H   -3.24352012384976     -0.53717694063124      3.47634274670834
| 35>   H   -0.83762686115396     -0.96228768937292      3.98295445184451
| 36>   C   1.61682420118661     -0.63420794675376     -0.38690138521263
| 37>   C   2.35814135326896     -0.64731456581800     -1.56697739440249
| 38>   C   2.51362532743239     -0.66412694559471     -3.77547779417378
| 39>   C   3.83364189584585     -0.62539689581587     -3.27022735439907
| 40>   H   2.19283726816559     -0.68803722462874     -4.81445950632874
| 41>   C   3.73998403040632     -0.61430463546022     -1.87736972225299
| 42>   H   4.55692114116316     -0.58092179072250     -1.16247577252329
| 43>   H   4.74016851273173     -0.60944867569571     -3.86679065134945
| 44>   H   2.09966484916984     -0.57576012898318      0.59063140857781
| 45>   C   -0.71885696476233     -2.58388978425274     -2.96225401046744
| 46>   H   -0.21468607598206     -2.56712086811666     -3.95121209736074
| 47>   H   -1.80804052336931     -2.66767864680013     -3.10567806102105
| 48>   C   -0.17076581474837     -3.67581651004624     -2.05965112573918
| 49>   C   -0.51535499243980     -5.08077781273627     -2.57862479112749
| 50>   H   -0.59019016359264     -3.55627732637080     -1.04714029046916
| 51>   H   0.92068054153854     -3.56943943299263     -1.96228234971408
| 52>   H   -1.60452719378867     -5.21242273285662     -2.65065343419926
| 53>   H   -0.11994969996235     -5.85304237618664     -1.90429214128714
| 54>   H   -0.08785000633210     -5.24915051920402     -3.57687672900064
| 55> *
| 56> 
| 57>                          ****END OF INPUT****
================================================================================

                       ****************************
                       * Single Point Calculation *
                       ****************************

---------------------------------
CARTESIAN COORDINATES (ANGSTROEM)
---------------------------------
  Cr    -0.322128   -0.727247   -2.363856
  S     -2.477648   -0.211229   -1.368870
  N      0.281781   -0.670007   -0.493062
  N      1.619261   -0.675967   -2.760854
  C     -3.591928   -1.582434   -1.677721
  C     -3.507437   -2.781421   -0.965153
  C     -4.509964   -1.412907   -2.718467
  C     -4.361602   -3.829116   -1.308989
  H     -2.790864   -2.893834   -0.152648
  C     -5.348011   -2.477076   -3.059929
  H     -4.574984   -0.462696   -3.250338
  C     -5.275197   -3.682311   -2.357876
  H     -4.308985   -4.766444   -0.754729
  H     -5.936965   -4.506953   -2.622189
  H     -6.068212   -2.354472   -3.868874
  C     -1.971826   -0.447238    0.325850
  C     -0.604985   -0.659763    0.596705
  C     -0.212741   -0.849906    1.932905
  C     -2.917596   -0.389401    1.351919
  C     -2.510780   -0.575086    2.671238
  H     -3.965634   -0.210156    1.111473
  C     -1.159137   -0.807580    2.953027
  H      0.829302   -1.050807    2.178127
  H     -3.243520   -0.537177    3.476343
  H     -0.837627   -0.962288    3.982954
  C      1.616824   -0.634208   -0.386901
  C      2.358141   -0.647315   -1.566977
  C      2.513625   -0.664127   -3.775478
  C      3.833642   -0.625397   -3.270227
  H      2.192837   -0.688037   -4.814460
  C      3.739984   -0.614305   -1.877370
  H      4.556921   -0.580922   -1.162476
  H      4.740169   -0.609449   -3.866791
  H      2.099665   -0.575760    0.590631
  C     -0.718857   -2.583890   -2.962254
  H     -0.214686   -2.567121   -3.951212
  H     -1.808041   -2.667679   -3.105678
  C     -0.170766   -3.675817   -2.059651
  C     -0.515355   -5.080778   -2.578625
  H     -0.590190   -3.556277   -1.047140
  H      0.920681   -3.569439   -1.962282
  H     -1.604527   -5.212423   -2.650653
  H     -0.119950   -5.853042   -1.904292
  H     -0.087850   -5.249151   -3.576877

----------------------------
CARTESIAN COORDINATES (A.U.)
----------------------------
  NO LB      ZA    FRAG     MASS         X           Y           Z
   0 Cr   24.0000    0    52.000   -0.608735   -1.374298   -4.467041
   1 S    16.0000    0    32.060   -4.682076   -0.399166   -2.586790
   2 N     7.0000    0    14.007    0.532489   -1.266130   -0.931752
   3 N     7.0000    0    14.007    3.059960   -1.277392   -5.217257
   4 C     6.0000    0    12.011   -6.787761   -2.990367   -3.170433
   5 C     6.0000    0    12.011   -6.628096   -5.256123   -1.823875
   6 C     6.0000    0    12.011   -8.522597   -2.670008   -5.137158
   7 C     6.0000    0    12.011   -8.242234   -7.235981   -2.473631
   8 H     1.0000    0     1.008   -5.273969   -5.468554   -0.288464
   9 C     6.0000    0    12.011  -10.106276   -4.680995   -5.782428
  10 H     1.0000    0     1.008   -8.645467   -0.874369   -6.142249
  11 C     6.0000    0    12.011   -9.968678   -6.958560   -4.455741
  12 H     1.0000    0     1.008   -8.142802   -9.007273   -1.426232
  13 H     1.0000    0     1.008  -11.219238   -8.516907   -4.955219
  14 H     1.0000    0     1.008  -11.467258   -4.449307   -7.311113
  15 C     6.0000    0    12.011   -3.726211   -0.845157    0.615767
  16 C     6.0000    0    12.011   -1.143255   -1.246771    1.127608
  17 C     6.0000    0    12.011   -0.402022   -1.606089    3.652661
  18 C     6.0000    0    12.011   -5.513457   -0.735861    2.554757
  19 C     6.0000    0    12.011   -4.744687   -1.086755    5.047908
  20 H     1.0000    0     1.008   -7.493962   -0.397137    2.100380
  21 C     6.0000    0    12.011   -2.190452   -1.526105    5.580412
  22 H     1.0000    0     1.008    1.567154   -1.985737    4.116064
  23 H     1.0000    0     1.008   -6.129365   -1.015117    6.569336
  24 H     1.0000    0     1.008   -1.582885   -1.818460    7.526693
  25 C     6.0000    0    12.011    3.055355   -1.198479   -0.731138
  26 C     6.0000    0    12.011    4.456241   -1.223247   -2.961158
  27 C     6.0000    0    12.011    4.750063   -1.255018   -7.134619
  28 C     6.0000    0    12.011    7.244533   -1.181829   -6.179834
  29 H     1.0000    0     1.008    4.143862   -1.300202   -9.098010
  30 C     6.0000    0    12.011    7.067546   -1.160868   -3.547715
  31 H     1.0000    0     1.008    8.611333   -1.097783   -2.196761
  32 H     1.0000    0     1.008    8.957620   -1.151691   -7.307175
  33 H     1.0000    0     1.008    3.967792   -1.088029    1.116132
  34 C     6.0000    0    12.011   -1.358443   -4.882844   -5.597849
  35 H     1.0000    0     1.008   -0.405698   -4.851155   -7.466709
  36 H     1.0000    0     1.008   -3.416701   -5.041182   -5.868881
  37 C     6.0000    0    12.011   -0.322701   -6.946287   -3.892177
  38 C     6.0000    0    12.011   -0.973880   -9.601279   -4.872895
  39 H     1.0000    0     1.008   -1.115298   -6.720390   -1.978808
  40 H     1.0000    0     1.008    1.739834   -6.745263   -3.708176
  41 H     1.0000    0     1.008   -3.032117   -9.850051   -5.009009
  42 H     1.0000    0     1.008   -0.226672  -11.060647   -3.598591
  43 H     1.0000    0     1.008   -0.166012   -9.919457   -6.759317

--------------------------------
INTERNAL COORDINATES (ANGSTROEM)
--------------------------------
 Cr     0   0   0     0.000000000000     0.00000000     0.00000000
 S      1   0   0     2.429513669525     0.00000000     0.00000000
 N      1   2   0     1.966686160713    82.91652304     0.00000000
 N      1   2   3     1.982228478944   160.99165660   314.75566002
 C      2   1   3     1.793658497805   108.55907675   243.75219266
 C      5   2   1     1.397304873024   122.04589277    75.88721858
 C      5   2   1     1.398099233394   116.32124176   258.98558667
 C      6   5   2     1.394807452823   118.80245177   183.37466311
 H      6   5   2     1.089163422432   120.58182665     3.67913382
 C      7   5   2     1.396915722705   118.91556067   176.10132238
 H      7   5   2     1.090878599661   120.51063936   355.69107041
 C     10   7   5     1.396700785716   120.21355121     0.75979787
 H      8   6   5     1.090208553442   119.40138339   180.43982387
 H     12  10   7     1.089876870724   119.95758937   179.47351481
 H     10   7   5     1.090006110856   119.47959657   179.90773937
 C      2   1   3     1.784273683885    96.27924975   350.61557138
 C      3   1   2     1.405009013844   122.97123381    12.73577287
 C     17   3   1     1.405503626204   124.07375989   168.59625422
 C     16   2   1     1.396654274287   120.02261851   186.11016822
 C     19  16   2     1.393046940254   119.50531144   180.00626035
 H     19  16   2     1.090104255771   119.72256981     0.64038939
 C     18  17   3     1.392158778563   120.18541669   179.21142501
 H     18  17   3     1.089196323133   120.39693571   358.00963880
 H     20  19  16     1.089283903179   119.92804273   180.35650890
 H     22  18  17     1.089979310363   119.17998224   179.68817807
 C      3   1   2     1.339735580586   112.46681603   193.11935932
 C     26   3   1     1.393665056927   117.56204095   359.76435137
 C      4   1   2     1.352586445817   142.94569390   225.54164890
 C     28   4   1     1.413938387814   110.45626401   180.30778600
 H     28   4   1     1.087639498457   121.42375535     0.00000000
 C     29  28   4     1.396046996854   107.10389383     0.05677717
 H     31  29  28     1.086081956675   127.33756573   180.36594017
 H     29  28   4     1.085326043231   125.71567311   179.95867096
 H     26   3   1     1.091843212958   120.86725170   178.51187241
 C      1   2   3     1.990626855194    98.30189710   111.28673377
 H     35   1   2     1.110183579087    99.39194177   139.37516711
 H     35   1   2     1.101776681594   107.88347777    25.21833687
 C     35   1   2     1.519012788210   114.82974537   259.16455267
 C     38  35   1     1.536877232835   112.06059640   179.89173295
 H     38  35   1     1.102444825094   109.29984816    59.07602444
 H     38  35   1     1.100932291160   109.92603409   302.41743492
 H     39  38  35     1.099461047335   110.71357704   300.74347403
 H     39  38  35     1.098845950951   110.76686858   180.69531161
 H     39  38  35     1.098916199215   111.07497205    60.61580826

---------------------------
INTERNAL COORDINATES (A.U.)
---------------------------
 Cr     0   0   0     0.000000000000     0.00000000     0.00000000
 S      1   0   0     4.591115474021     0.00000000     0.00000000
 N      1   2   0     3.716498235121    82.91652304     0.00000000
 N      1   2   3     3.745868960064   160.99165660   314.75566002
 C      2   1   3     3.389523338633   108.55907675   243.75219266
 C      5   2   1     2.640523535609   122.04589277    75.88721858
 C      5   2   1     2.642024659159   116.32124176   258.98558667
 C      6   5   2     2.635804095388   118.80245177   183.37466311
 H      6   5   2     2.058220583480   120.58182665     3.67913382
 C      7   5   2     2.639788148082   118.91556067   176.10132238
 H      7   5   2     2.061461798716   120.51063936   355.69107041
 C     10   7   5     2.639381976036   120.21355121     0.75979787
 H      8   6   5     2.060195594865   119.40138339   180.43982387
 H     12  10   7     2.059568805363   119.95758937   179.47351481
 H     10   7   5     2.059813033819   119.47959657   179.90773937
 C      2   1   3     3.371788610505    96.27924975   350.61557138
 C      3   1   2     2.655082251856   122.97123381    12.73577287
 C     17   3   1     2.656016933760   124.07375989   168.59625422
 C     16   2   1     2.639294082173   120.02261851   186.11016822
 C     19  16   2     2.632477208777   119.50531144   180.00626035
 H     19  16   2     2.059998500829   119.72256981     0.64038939
 C     18  17   3     2.630798826418   120.18541669   179.21142501
 H     18  17   3     2.058282756795   120.39693571   358.00963880
 H     20  19  16     2.058448259096   119.92804273   180.35650890
 H     22  18  17     2.059762388226   119.17998224   179.68817807
 C      3   1   2     2.531733339178   112.46681603   193.11935932
 C     26   3   1     2.633645280008   117.56204095   359.76435137
 C      4   1   2     2.556017955049   142.94569390   225.54164890
 C     28   4   1     2.671956323207   110.45626401   180.30778600
 H     28   4   1     2.055340784519   121.42375535     0.00000000
 C     29  28   4     2.638146494138   107.10389383     0.05677717
 H     31  29  28     2.052397457109   127.33756573   180.36594017
 H     29  28   4     2.050968987719   125.71567311   179.95867096
 H     26   3   1     2.063284653672   120.86725170   178.51187241
 C      1   2   3     3.761739591147    98.30189710   111.28673377
 H     35   1   2     2.097942922850    99.39194177   139.37516711
 H     35   1   2     2.082056188953   107.88347777    25.21833687
 C     35   1   2     2.870518163641   114.82974537   259.16455267
 C     38  35   1     2.904277071516   112.06059640   179.89173295
 H     38  35   1     2.083318797186   109.29984816    59.07602444
 H     38  35   1     2.080460522283   109.92603409   302.41743492
 H     39  38  35     2.077680274378   110.71357704   300.74347403
 H     39  38  35     2.076517910665   110.76686858   180.69531161
 H     39  38  35     2.076650660646   111.07497205    60.61580826

---------------------
BASIS SET INFORMATION
---------------------
There are 5 groups of distinct atoms

 Group   1 Type Cr  : 17s11p7d1f contracted to 6s4p4d1f pattern {842111/6311/4111/1}
 Group   2 Type S   : 14s9p3d1f contracted to 5s5p2d1f pattern {73211/51111/21/1}
 Group   3 Type N   : 11s6p2d1f contracted to 5s3p2d1f pattern {62111/411/11/1}
 Group   4 Type C   : 11s6p2d1f contracted to 5s3p2d1f pattern {62111/411/11/1}
 Group   5 Type H   : 5s1p contracted to 3s1p pattern {311/1}

Atom   0Cr   basis set group =>   1
Atom   1S    basis set group =>   2
Atom   2N    basis set group =>   3
Atom   3N    basis set group =>   3
Atom   4C    basis set group =>   4
Atom   5C    basis set group =>   4
Atom   6C    basis set group =>   4
Atom   7C    basis set group =>   4
Atom   8H    basis set group =>   5
Atom   9C    basis set group =>   4
Atom  10H    basis set group =>   5
Atom  11C    basis set group =>   4
Atom  12H    basis set group =>   5
Atom  13H    basis set group =>   5
Atom  14H    basis set group =>   5
Atom  15C    basis set group =>   4
Atom  16C    basis set group =>   4
Atom  17C    basis set group =>   4
Atom  18C    basis set group =>   4
Atom  19C    basis set group =>   4
Atom  20H    basis set group =>   5
Atom  21C    basis set group =>   4
Atom  22H    basis set group =>   5
Atom  23H    basis set group =>   5
Atom  24H    basis set group =>   5
Atom  25C    basis set group =>   4
Atom  26C    basis set group =>   4
Atom  27C    basis set group =>   4
Atom  28C    basis set group =>   4
Atom  29H    basis set group =>   5
Atom  30C    basis set group =>   4
Atom  31H    basis set group =>   5
Atom  32H    basis set group =>   5
Atom  33H    basis set group =>   5
Atom  34C    basis set group =>   4
Atom  35H    basis set group =>   5
Atom  36H    basis set group =>   5
Atom  37C    basis set group =>   4
Atom  38C    basis set group =>   4
Atom  39H    basis set group =>   5
Atom  40H    basis set group =>   5
Atom  41H    basis set group =>   5
Atom  42H    basis set group =>   5
Atom  43H    basis set group =>   5
---------------------------------
AUXILIARY/J BASIS SET INFORMATION
---------------------------------
There are 5 groups of distinct atoms

 Group   1 Type Cr  : 19s5p5d3f3g contracted to 8s5p5d2f3g pattern {121111111/11111/11111/21/111}
 Group   2 Type S   : 14s5p5d2f1g contracted to 8s4p3d1f1g pattern {71111111/2111/311/2/1}
 Group   3 Type N   : 12s5p4d2f1g contracted to 6s4p3d1f1g pattern {711111/2111/211/2/1}
 Group   4 Type C   : 12s5p4d2f1g contracted to 6s4p3d1f1g pattern {711111/2111/211/2/1}
 Group   5 Type H   : 5s2p1d contracted to 3s1p1d pattern {311/2/1}

Atom   0Cr   basis set group =>   1
Atom   1S    basis set group =>   2
Atom   2N    basis set group =>   3
Atom   3N    basis set group =>   3
Atom   4C    basis set group =>   4
Atom   5C    basis set group =>   4
Atom   6C    basis set group =>   4
Atom   7C    basis set group =>   4
Atom   8H    basis set group =>   5
Atom   9C    basis set group =>   4
Atom  10H    basis set group =>   5
Atom  11C    basis set group =>   4
Atom  12H    basis set group =>   5
Atom  13H    basis set group =>   5
Atom  14H    basis set group =>   5
Atom  15C    basis set group =>   4
Atom  16C    basis set group =>   4
Atom  17C    basis set group =>   4
Atom  18C    basis set group =>   4
Atom  19C    basis set group =>   4
Atom  20H    basis set group =>   5
Atom  21C    basis set group =>   4
Atom  22H    basis set group =>   5
Atom  23H    basis set group =>   5
Atom  24H    basis set group =>   5
Atom  25C    basis set group =>   4
Atom  26C    basis set group =>   4
Atom  27C    basis set group =>   4
Atom  28C    basis set group =>   4
Atom  29H    basis set group =>   5
Atom  30C    basis set group =>   4
Atom  31H    basis set group =>   5
Atom  32H    basis set group =>   5
Atom  33H    basis set group =>   5
Atom  34C    basis set group =>   4
Atom  35H    basis set group =>   5
Atom  36H    basis set group =>   5
Atom  37C    basis set group =>   4
Atom  38C    basis set group =>   4
Atom  39H    basis set group =>   5
Atom  40H    basis set group =>   5
Atom  41H    basis set group =>   5
Atom  42H    basis set group =>   5
Atom  43H    basis set group =>   5
------------------------------------------------------------------------------
                           ORCA GTO INTEGRAL CALCULATION
                           -- RI-GTO INTEGRALS CHOSEN --
------------------------------------------------------------------------------

                         BASIS SET STATISTICS AND STARTUP INFO

Gaussian basis set:
 # of primitive gaussian shells          ...  623
 # of primitive gaussian functions       ... 1327
 # of contracted shells                  ...  350
 # of contracted basis functions         ...  884
 Highest angular momentum                ...    3
 Maximum contraction depth               ...    8
Auxiliary gaussian basis set:
 # of primitive gaussian shells          ...  750
 # of primitive gaussian functions       ... 2044
 # of contracted shells                  ...  470
 # of contracted aux-basis functions     ... 1438
 Highest angular momentum                ...    4
 Maximum contraction depth               ...   12
Ratio of auxiliary to basis functions    ...  1.63
Integral package used                  ... LIBINT
 One Electron integrals                  ... done
 Ordering auxiliary basis shells         ... done
 Integral threshhold             Thresh  ...  2.500e-11
 Primitive cut-off               TCut    ...  2.500e-12
 Pre-screening matrix                    ... done
 Shell pair data                         ... 
 Ordering of the shell pairs             ... done (   0.005 sec) 43867 of 61425 pairs
 Determination of significant pairs      ... done (   0.000 sec)
 Creation of shell pair data             ... done (   0.003 sec)
 Storage of shell pair data              ... done (   0.003 sec)
 Shell pair data done in (   0.011 sec)
 Computing two index integrals           ... done
 Cholesky decomposition of the V-matrix  ... done


Timings:
 Total evaluation time                   ...   0.617 sec (  0.010 min)
 One electron matrix time                ...   0.216 sec (  0.004 min) = 35.0%
 Schwartz matrix evaluation time         ...   0.335 sec (  0.006 min) = 54.3%
 Two index repulsion integral time       ...   0.020 sec (  0.000 min) =  3.3%
 Cholesky decomposition of V             ...   0.023 sec (  0.000 min) =  3.8%
 Three index repulsion integral time     ...   0.000 sec (  0.000 min) =  0.0%

-------------------------------------------------------------------------------
                                 ORCA SCF
-------------------------------------------------------------------------------

------------
SCF SETTINGS
------------
Hamiltonian:
 Density Functional     Method          .... DFT(GTOs)
 Exchange Functional    Exchange        .... B88
   X-Alpha parameter    XAlpha          ....  0.666667
   Becke's b parameter  XBeta           ....  0.004200
 Correlation Functional Correlation     .... P86
 LDA part of GGA corr.  LDAOpt          .... PW91-LDA
 Gradients option       PostSCFGGA      .... off
   Density functional embedding theory  .... OFF
 RI-approximation to the Coulomb term is turned on
   Number of auxiliary basis functions  .... 1438
   RIJ-COSX (HFX calculated with COS-X)).... on


General Settings:
 Integral files         IntName         .... IM2_4_Solv
 Hartree-Fock type      HFTyp           .... UHF
 Total Charge           Charge          ....    1
 Multiplicity           Mult            ....    4
 Number of Electrons    NEL             ....  193
 Basis Dimension        Dim             ....  884
 Nuclear Repulsion      ENuc            ....   2593.8669022730 Eh

Convergence Acceleration:
 DIIS                   CNVDIIS         .... on
   Start iteration      DIISMaxIt       ....    12
   Startup error        DIISStart       ....  0.200000
   # of expansion vecs  DIISMaxEq       ....     5
   Bias factor          DIISBfac        ....   1.050
   Max. coefficient     DIISMaxC        ....  10.000
 Newton-Raphson         CNVNR           .... off
 SOSCF                  CNVSOSCF        .... off
 Level Shifting         CNVShift        .... on
   Level shift para.    LevelShift      ....    0.2500
   Turn off err/grad.   ShiftErr        ....    0.0010
 Zerner damping         CNVZerner       .... off
 Static damping         CNVDamp         .... on
   Fraction old density DampFac         ....    0.7000
   Max. Damping (<1)    DampMax         ....    0.9800
   Min. Damping (>=0)   DampMin         ....    0.0000
   Turn off err/grad.   DampErr         ....    0.1000
 Fernandez-Rico         CNVRico         .... off

SCF Procedure:
 Maximum # iterations   MaxIter         ....   125
 SCF integral mode      SCFMode         .... Direct
   Integral package                     .... LIBINT
 Reset frequency        DirectResetFreq ....    20
 Integral Threshold     Thresh          ....  2.500e-11 Eh
 Primitive CutOff       TCut            ....  2.500e-12 Eh

Convergence Tolerance:
 Convergence Check Mode ConvCheckMode   .... Total+1el-Energy
 Convergence forced     ConvForced      .... 0
 Energy Change          TolE            ....  1.000e-08 Eh
 1-El. energy change                    ....  1.000e-05 Eh
 DIIS Error             TolErr          ....  5.000e-07


Diagonalization of the overlap matrix:
Smallest eigenvalue                        ... 6.067e-06
Time for diagonalization                   ...    0.078 sec
Threshold for overlap eigenvalues          ... 1.000e-08
Number of eigenvalues below threshold      ... 0
Time for construction of square roots      ...    0.051 sec
Total time needed                          ...    0.130 sec

---------------------
INITIAL GUESS: MOREAD
---------------------
Guess MOs are being read from file: IM2_4_Tight2.ges
Input Geometry matches current geometry (good)
Input basis set matches current basis set (good)
MOs were renormalized
MOs were reorthogonalized (Cholesky)
                      ------------------
                      INITIAL GUESS DONE (   0.4 sec)
                      ------------------
-------------------
DFT GRID GENERATION
-------------------

General Integration Accuracy     IntAcc      ...  5.340
Radial Grid Type                 RadialGrid  ... Gauss-Chebyshev
Angular Grid (max. acc.)         AngularGrid ... Lebedev-590
Angular grid pruning method      GridPruning ... 3 (G Style)
Weight generation scheme         WeightScheme... Becke
Basis function cutoff            BFCut       ...    1.0000e-11
Integration weight cutoff        WCut        ...    1.0000e-14
Grids for H and He will be reduced by one unit

# of grid points (after initial pruning)     ... 624918 (   0.3 sec)
# of grid points (after weights+screening)   ... 535298 (   3.7 sec)
nearest neighbour list constructed           ...    0.0 sec
Grid point re-assignment to atoms done       ...    0.0 sec
Grid point division into batches done        ...    3.3 sec
Reduced shell lists constructed in    9.2 sec

Total number of grid points                  ...   535298
Total number of batches                      ...     8388
Average number of points per batch           ...       63
Average number of grid points per atom       ...    12166
Average number of shells per batch           ...   135.93 (38.84%)
Average number of basis functions per batch  ...   329.96 (37.33%)
Average number of large shells per batch     ...    86.29 (63.48%)
Average number of large basis fcns per batch ...   211.53 (64.11%)
Maximum spatial batch extension              ...  24.34, 24.53, 21.61 au
Average spatial batch extension              ...   1.59,  1.64,  1.60 au

Time for grid setup =   13.201 sec

--------------------
COSX GRID GENERATION
--------------------

General Integration Accuracy     IntAcc      ...  3.340
Radial Grid Type                 RadialGrid  ... Gauss-Chebyshev
Angular Grid (max. acc.)         AngularGrid ... Lebedev-50
Angular grid pruning method      GridPruning ... 3 (G Style)
Weight generation scheme         WeightScheme... Becke
Basis function cutoff            BFCut       ...    1.0000e-11
Integration weight cutoff        WCut        ...    1.0000e-14
Grids for H and He will be reduced by one unit

# of grid points (after initial pruning)     ...  20880 (   0.0 sec)
# of grid points (after weights+screening)   ...  18733 (   0.1 sec)
nearest neighbour list constructed           ...    0.0 sec
Grid point re-assignment to atoms done       ...    0.0 sec
Grid point division into batches done        ...    0.0 sec
Reduced shell lists constructed in    0.3 sec

Total number of grid points                  ...    18733
Total number of batches                      ...      316
Average number of points per batch           ...       59
Average number of grid points per atom       ...      426
Average number of shells per batch           ...   171.57 (49.02%)
Average number of basis functions per batch  ...   427.42 (48.35%)
Average number of large shells per batch     ...   113.14 (65.94%)
Average number of large basis fcns per batch ...   282.84 (66.17%)
Maximum spatial batch extension              ...  17.49, 20.77, 16.15 au
Average spatial batch extension              ...   4.43,  5.07,  4.36 au

Overlap Fitting                  UseSFitting ... on
Constructing numerical overlap ... done (      0.3 sec)
Inverting numerical overlap    ... done (      0.0 sec)
Obtaining analytic overlap     ... done (      0.0 sec)
Final contraction and storage  ... done (      0.0 sec)


General Integration Accuracy     IntAcc      ...  3.670
Radial Grid Type                 RadialGrid  ... Gauss-Chebyshev
Angular Grid (max. acc.)         AngularGrid ... Lebedev-50
Angular grid pruning method      GridPruning ... 3 (G Style)
Weight generation scheme         WeightScheme... Becke
Basis function cutoff            BFCut       ...    1.0000e-11
Integration weight cutoff        WCut        ...    1.0000e-14
Grids for H and He will be reduced by one unit

# of grid points (after initial pruning)     ...  26376 (   0.0 sec)
# of grid points (after weights+screening)   ...  23581 (   0.2 sec)
nearest neighbour list constructed           ...    0.0 sec
Grid point re-assignment to atoms done       ...    0.0 sec
Grid point division into batches done        ...    0.0 sec
Reduced shell lists constructed in    0.3 sec

Total number of grid points                  ...    23581
Total number of batches                      ...      386
Average number of points per batch           ...       61
Average number of grid points per atom       ...      536
Average number of shells per batch           ...   167.59 (47.88%)
Average number of basis functions per batch  ...   416.27 (47.09%)
Average number of large shells per batch     ...   109.95 (65.60%)
Average number of large basis fcns per batch ...   274.35 (65.91%)
Maximum spatial batch extension              ...  17.79, 22.72, 16.71 au
Average spatial batch extension              ...   4.09,  4.72,  4.00 au

Overlap Fitting                  UseSFitting ... on
Constructing numerical overlap ... done (      0.3 sec)
Inverting numerical overlap    ... done (      0.0 sec)
Obtaining analytic overlap     ... done (      0.0 sec)
Final contraction and storage  ... done (      0.0 sec)


General Integration Accuracy     IntAcc      ...  4.010
Radial Grid Type                 RadialGrid  ... Gauss-Chebyshev
Angular Grid (max. acc.)         AngularGrid ... Lebedev-110
Angular grid pruning method      GridPruning ... 3 (G Style)
Weight generation scheme         WeightScheme... Becke
Basis function cutoff            BFCut       ...    1.0000e-11
Integration weight cutoff        WCut        ...    1.0000e-14
Grids for H and He will be reduced by one unit

# of grid points (after initial pruning)     ...  49892 (   0.0 sec)
# of grid points (after weights+screening)   ...  44287 (   0.3 sec)
nearest neighbour list constructed           ...    0.0 sec
Grid point re-assignment to atoms done       ...    0.0 sec
Grid point division into batches done        ...    0.0 sec
Reduced shell lists constructed in    0.6 sec

Total number of grid points                  ...    44287
Total number of batches                      ...      710
Average number of points per batch           ...       62
Average number of grid points per atom       ...     1007
Average number of shells per batch           ...   161.35 (46.10%)
Average number of basis functions per batch  ...   399.43 (45.18%)
Average number of large shells per batch     ...   105.43 (65.34%)
Average number of large basis fcns per batch ...   262.19 (65.64%)
Maximum spatial batch extension              ...  21.37, 22.89, 19.69 au
Average spatial batch extension              ...   3.49,  4.00,  3.52 au

Overlap Fitting                  UseSFitting ... on
Constructing numerical overlap ... done (      0.5 sec)
Inverting numerical overlap    ... done (      0.0 sec)
Obtaining analytic overlap     ... done (      0.0 sec)
Final contraction and storage  ... done (      0.0 sec)

Time for X-Grid setup             =    3.094 sec

--------------------
CPCM SOLVATION MODEL
--------------------
CPCM parameters:
  Epsilon                                         ...       2.3741
  Refrac                                          ...       1.3300
  Rsolv                                           ...       1.3000
  Surface type                                    ...    GEPOL SES
  Epsilon function type                           ...         CPCM
Solvent:                                     ... TOLUENE
SMD-CDS solvent descriptors:
  Soln                                       ...    1.4961
  Soln25                                     ...    1.4936
  Sola                                       ...    0.0000
  Solb                                       ...    0.1400
  Solg                                       ...   40.2000
  Solc                                       ...    0.8570
  Solh                                       ...    0.0000
Radii:
 Radius for Cr used is    3.5716 Bohr (=   1.8900 Ang.)
 Radius for S  used is    4.7054 Bohr (=   2.4900 Ang.)
 Radius for N  used is    3.5716 Bohr (=   1.8900 Ang.)
 Radius for C  used is    3.4960 Bohr (=   1.8500 Ang.)
 Radius for H  used is    2.2677 Bohr (=   1.2000 Ang.)
Calculating surface                               ...        done! (  0.1s)
GEPOL surface points                              ...         1720
GEPOL Volume                                      ...    2580.8144
GEPOL Surface-area                                ...    1229.0642
Calculating surface distance matrix               ...        done! (  0.0s)
Performing Cholesky decomposition & store         ...        done! (  0.0s)
Overall time for CPCM initialization              ...                 0.1s
--------------
SCF ITERATIONS
--------------
ITER       Energy         Delta-E        Max-DP      RMS-DP      [F,P]     Damp
               ***  Starting incremental Fock matrix formation  ***
  0  -2326.7508027284   0.000000000000 0.00537565  0.00004911  0.0053608 0.7000
  1  -2326.7512776403  -0.000474911923 0.00464160  0.00004782  0.0034301 0.7000
                               ***Turning on DIIS***
  2  -2326.7515524875  -0.000274847148 0.01073267  0.00012453  0.0033666 0.0000
  3  -2326.7521226999  -0.000570212410 0.00179202  0.00001603  0.0028460 0.0000
  4  -2326.7521858612  -0.000063161302 0.00232581  0.00001152  0.0007709 0.0000
  5  -2326.7522007807  -0.000014919513 0.00079318  0.00000297  0.0010882 0.0000
  6  -2326.7522063844  -0.000005603675 0.00056356  0.00000372  0.0004529 0.0000
  7  -2326.7522062171   0.000000167322 0.00026043  0.00000132  0.0005825 0.0000
  8  -2326.7522078917  -0.000001674606 0.00013256  0.00000118  0.0001483 0.0000
  9  -2326.7522079146  -0.000000022956 0.00009687  0.00000067  0.0000847 0.0000
 10  -2326.7522079480  -0.000000033335 0.00017062  0.00000097  0.0000254 0.0000
 11  -2326.7522079230   0.000000025014 0.00006260  0.00000054  0.0000092 0.0000
 12  -2326.7522078644   0.000000058528 0.00003451  0.00000032  0.0000115 0.0000
 13  -2326.7522079180  -0.000000053546 0.00005922  0.00000042  0.0000147 0.0000
 14  -2326.7522077968   0.000000121200 0.00012044  0.00000064  0.0000034 0.0000
 15  -2326.7522078121  -0.000000015331 0.00005645  0.00000039  0.0000016 0.0000
                            ***DIIS convergence achieved***

               *****************************************************
               *                     SUCCESS                       *
               *           SCF CONVERGED AFTER  16 CYCLES          *
               *****************************************************

Setting up the final grid:

General Integration Accuracy     IntAcc      ...  5.340
Radial Grid Type                 RadialGrid  ... Gauss-Chebyshev
Angular Grid (max. acc.)         AngularGrid ... Lebedev-590
Angular grid pruning method      GridPruning ... 3 (G Style)
Weight generation scheme         WeightScheme... Becke
Basis function cutoff            BFCut       ...    1.0000e-11
Integration weight cutoff        WCut        ...    1.0000e-14
Grids for H and He will be reduced by one unit

# of grid points (after initial pruning)     ... 624918 (   0.2 sec)
# of grid points (after weights+screening)   ... 535298 (   3.8 sec)
nearest neighbour list constructed           ...    0.0 sec
Grid point re-assignment to atoms done       ...    0.0 sec
Grid point division into batches done        ...    3.4 sec
Reduced shell lists constructed in    9.6 sec

Total number of grid points                  ...   535298
Total number of batches                      ...     8388
Average number of points per batch           ...       63
Average number of grid points per atom       ...    12166
Average number of shells per batch           ...   135.93 (38.84%)
Average number of basis functions per batch  ...   329.96 (37.33%)
Average number of large shells per batch     ...    86.29 (63.48%)
Average number of large basis fcns per batch ...   211.53 (64.11%)
Maximum spatial batch extension              ...  24.34, 24.53, 21.61 au
Average spatial batch extension              ...   1.59,  1.64,  1.60 au

Final grid set up in   13.6 sec
Final integration                            ... done (  28.6 sec)
Change in XC energy                          ...    -0.000000001
Integrated number of electrons               ...   193.000080234
Previous integrated no of electrons          ...   193.000080231

SMD CDS free energy correction energy :                -9.42066     Kcal/mol
Total Energy after SMD CDS correction =             -2326.767220547 Eh

----------------
TOTAL SCF ENERGY
----------------

Total Energy       :        -2326.76722055 Eh          -63314.55492 eV

Components:
Nuclear Repulsion  :         2593.86690227 Eh           70582.70677 eV
Electronic Energy  :        -4920.63412282 Eh         -133897.26169 eV
One Electron Energy:        -8320.72454245 Eh         -226418.42569 eV
Two Electron Energy:         3400.09041963 Eh           92521.16400 eV
CPCM Dielectric    :           -0.04750034 Eh              -1.29255 eV
SMD CDS (Gcds)     :           -0.01501278 Eh              -0.40852 eV

Virial components:
Potential Energy   :        -4646.58666056 Eh         -126440.05112 eV
Kinetic Energy     :         2319.81944001 Eh           63125.49620 eV
Virial Ratio       :            2.00299497


DFT components:
N(Alpha)           :       98.000039905943 electrons
N(Beta)            :       95.000040327896 electrons
N(Total)           :      193.000080233840 electrons
E(X)               :     -196.862224881918 Eh       
E(C)               :       -7.458947554795 Eh       
E(XC)              :     -204.321172436714 Eh       
DFET-embed. en.    :        0.000000000000 Eh       
CPCM Solvation Model Properties:
Surface-charge          :           -1.06028639
Charge-correction       :            0.00407643 Eh               0.11093 eV
Free-energy (cav+disp)  :            0.00581499 Eh               0.15823 eV
Corrected G(solv)       :        -2326.75732913 Eh          -63314.28576 eV

---------------
SCF CONVERGENCE
---------------

  Last Energy change         ...    4.5312e-08  Tolerance :   1.0000e-08
  Last MAX-Density change    ...    4.3667e-05  Tolerance :   1.0000e-07
  Last RMS-Density change    ...    3.5321e-07  Tolerance :   5.0000e-09
  Last DIIS Error            ...    9.6323e-07  Tolerance :   5.0000e-07

             **** THE GBW FILE WAS UPDATED (IM2_4_Solv.gbw) ****
             **** DENSITY FILE WAS UPDATED (IM2_4_Solv.scfp) ****
             **** ENERGY FILE WAS UPDATED (IM2_4_Solv.en.tmp) ****
----------------------
UHF SPIN CONTAMINATION
----------------------

Warning: in a DFT calculation there is little theoretical justification to 
         calculate <S**2> as in Hartree-Fock theory. We will do it anyways
         but you should keep in mind that the values have only limited relevance

Expectation value of <S**2>     :     3.820967
Ideal value S*(S+1) for S=1.5   :     3.750000
Deviation                       :     0.070967

             **** THE GBW FILE WAS UPDATED (IM2_4_Solv.gbw) ****
             **** DENSITY FILE WAS UPDATED (IM2_4_Solv.scfp) ****
----------------
ORBITAL ENERGIES
----------------
                 SPIN UP ORBITALS
  NO   OCC          E(Eh)            E(eV) 
   0   1.0000    -214.631991     -5840.4334 
   1   1.0000     -88.203803     -2400.1475 
   2   1.0000     -24.362797      -662.9454 
   3   1.0000     -20.728782      -564.0588 
   4   1.0000     -20.725723      -563.9756 
   5   1.0000     -20.722608      -563.8908 
   6   1.0000     -14.103418      -383.7735 
   7   1.0000     -14.075805      -383.0221 
   8   1.0000     -10.022234      -272.7188 
   9   1.0000     -10.016879      -272.5731 
  10   1.0000     -10.003023      -272.1961 
  11   1.0000     -10.000082      -272.1161 
  12   1.0000      -9.988983      -271.8141 
  13   1.0000      -9.985816      -271.7279 
  14   1.0000      -9.970982      -271.3242 
  15   1.0000      -9.967750      -271.2363 
  16   1.0000      -9.965892      -271.1857 
  17   1.0000      -9.964929      -271.1595 
  18   1.0000      -9.964767      -271.1551 
  19   1.0000      -9.960601      -271.0417 
  20   1.0000      -9.960219      -271.0313 
  21   1.0000      -9.958703      -270.9901 
  22   1.0000      -9.958216      -270.9768 
  23   1.0000      -9.955473      -270.9022 
  24   1.0000      -9.948554      -270.7139 
  25   1.0000      -9.942778      -270.5567 
  26   1.0000      -9.938865      -270.4503 
  27   1.0000      -9.923467      -270.0313 
  28   1.0000      -7.783577      -211.8019 
  29   1.0000      -5.804222      -157.9409 
  30   1.0000      -5.800828      -157.8485 
  31   1.0000      -5.796454      -157.7295 
  32   1.0000      -2.843759       -77.3826 
  33   1.0000      -1.841241       -50.1027 
  34   1.0000      -1.834285       -49.9134 
  35   1.0000      -1.826736       -49.7080 
  36   1.0000      -0.954251       -25.9665 
  37   1.0000      -0.928087       -25.2545 
  38   1.0000      -0.863617       -23.5002 
  39   1.0000      -0.844847       -22.9895 
  40   1.0000      -0.801831       -21.8189 
  41   1.0000      -0.771108       -20.9829 
  42   1.0000      -0.755080       -20.5468 
  43   1.0000      -0.751104       -20.4386 
  44   1.0000      -0.746168       -20.3043 
  45   1.0000      -0.738600       -20.0983 
  46   1.0000      -0.721401       -19.6303 
  47   1.0000      -0.697229       -18.9726 
  48   1.0000      -0.658030       -17.9059 
  49   1.0000      -0.650085       -17.6897 
  50   1.0000      -0.620069       -16.8729 
  51   1.0000      -0.609788       -16.5932 
  52   1.0000      -0.601982       -16.3808 
  53   1.0000      -0.589431       -16.0392 
  54   1.0000      -0.575191       -15.6518 
  55   1.0000      -0.570486       -15.5237 
  56   1.0000      -0.549578       -14.9548 
  57   1.0000      -0.534902       -14.5554 
  58   1.0000      -0.532061       -14.4781 
  59   1.0000      -0.521850       -14.2003 
  60   1.0000      -0.493367       -13.4252 
  61   1.0000      -0.489435       -13.3182 
  62   1.0000      -0.471729       -12.8364 
  63   1.0000      -0.466871       -12.7042 
  64   1.0000      -0.464753       -12.6466 
  65   1.0000      -0.457480       -12.4487 
  66   1.0000      -0.454265       -12.3612 
  67   1.0000      -0.443339       -12.0639 
  68   1.0000      -0.438849       -11.9417 
  69   1.0000      -0.436480       -11.8772 
  70   1.0000      -0.428036       -11.6474 
  71   1.0000      -0.421149       -11.4601 
  72   1.0000      -0.418369       -11.3844 
  73   1.0000      -0.408190       -11.1074 
  74   1.0000      -0.405921       -11.0457 
  75   1.0000      -0.404314       -11.0019 
  76   1.0000      -0.396971       -10.8021 
  77   1.0000      -0.391548       -10.6546 
  78   1.0000      -0.386998       -10.5308 
  79   1.0000      -0.383248       -10.4287 
  80   1.0000      -0.378969       -10.3123 
  81   1.0000      -0.375388       -10.2148 
  82   1.0000      -0.366454        -9.9717 
  83   1.0000      -0.364563        -9.9203 
  84   1.0000      -0.360629        -9.8132 
  85   1.0000      -0.347830        -9.4649 
  86   1.0000      -0.343401        -9.3444 
  87   1.0000      -0.336725        -9.1627 
  88   1.0000      -0.304927        -8.2975 
  89   1.0000      -0.304529        -8.2866 
  90   1.0000      -0.300294        -8.1714 
  91   1.0000      -0.293514        -7.9869 
  92   1.0000      -0.293247        -7.9797 
  93   1.0000      -0.283243        -7.7074 
  94   1.0000      -0.273432        -7.4405 
  95   1.0000      -0.267685        -7.2841 
  96   1.0000      -0.252383        -6.8677 
  97   1.0000      -0.242159        -6.5895 
  98   0.0000      -0.189099        -5.1456 
  99   0.0000      -0.173648        -4.7252 
 100   0.0000      -0.143170        -3.8959 
 101   0.0000      -0.124354        -3.3839 
 102   0.0000      -0.111104        -3.0233 
 103   0.0000      -0.106519        -2.8985 
 104   0.0000      -0.090022        -2.4496 
 105   0.0000      -0.071802        -1.9538 
 106   0.0000      -0.064095        -1.7441 
 107   0.0000      -0.041481        -1.1288 
 108   0.0000      -0.039247        -1.0680 
 109   0.0000      -0.020120        -0.5475 
 110   0.0000      -0.012361        -0.3364 
 111   0.0000      -0.006110        -0.1663 
 112   0.0000      -0.003213        -0.0874 
 113   0.0000       0.002697         0.0734 
 114   0.0000       0.009823         0.2673 
 115   0.0000       0.012237         0.3330 
 116   0.0000       0.016776         0.4565 
 117   0.0000       0.022055         0.6001 
 118   0.0000       0.025497         0.6938 
 119   0.0000       0.030403         0.8273 
 120   0.0000       0.031520         0.8577 
 121   0.0000       0.033933         0.9234 
 122   0.0000       0.039768         1.0822 
 123   0.0000       0.046370         1.2618 
 124   0.0000       0.047616         1.2957 
 125   0.0000       0.049476         1.3463 
 126   0.0000       0.050091         1.3630 
 127   0.0000       0.056870         1.5475 
 128   0.0000       0.058243         1.5849 
 129   0.0000       0.060667         1.6508 
 130   0.0000       0.067426         1.8348 
 131   0.0000       0.074874         2.0374 
 132   0.0000       0.075428         2.0525 
 133   0.0000       0.079678         2.1682 
 134   0.0000       0.082541         2.2460 
 135   0.0000       0.088176         2.3994 
 136   0.0000       0.091611         2.4929 
 137   0.0000       0.094192         2.5631 
 138   0.0000       0.100068         2.7230 
 139   0.0000       0.108678         2.9573 
 140   0.0000       0.110939         3.0188 
 141   0.0000       0.113854         3.0981 
 142   0.0000       0.119103         3.2410 
 143   0.0000       0.121180         3.2975 
 144   0.0000       0.126141         3.4325 
 145   0.0000       0.129154         3.5145 
 146   0.0000       0.130839         3.5603 
 147   0.0000       0.132936         3.6174 
 148   0.0000       0.139484         3.7956 
 149   0.0000       0.142944         3.8897 
 150   0.0000       0.147734         4.0200 
 151   0.0000       0.151007         4.1091 
 152   0.0000       0.152456         4.1485 
 153   0.0000       0.155206         4.2234 
 154   0.0000       0.163135         4.4391 
 155   0.0000       0.166729         4.5369 
 156   0.0000       0.170114         4.6290 
 157   0.0000       0.173734         4.7275 
 158   0.0000       0.175605         4.7785 
 159   0.0000       0.176860         4.8126 
 160   0.0000       0.180232         4.9044 
 161   0.0000       0.183589         4.9957 
 162   0.0000       0.186602         5.0777 
 163   0.0000       0.187972         5.1150 
 164   0.0000       0.193940         5.2774 
 165   0.0000       0.196546         5.3483 
 166   0.0000       0.200042         5.4434 
 167   0.0000       0.204436         5.5630 
 168   0.0000       0.214653         5.8410 
 169   0.0000       0.214824         5.8457 
 170   0.0000       0.222162         6.0453 
 171   0.0000       0.228299         6.2123 
 172   0.0000       0.229023         6.2320 
 173   0.0000       0.230737         6.2787 
 174   0.0000       0.235871         6.4184 
 175   0.0000       0.240857         6.5540 
 176   0.0000       0.243815         6.6345 
 177   0.0000       0.247242         6.7278 
 178   0.0000       0.254565         6.9271 
 179   0.0000       0.258660         7.0385 
 180   0.0000       0.264285         7.1916 
 181   0.0000       0.267337         7.2746 
 182   0.0000       0.268228         7.2989 
 183   0.0000       0.274788         7.4774 
 184   0.0000       0.277992         7.5646 
 185   0.0000       0.283958         7.7269 
 186   0.0000       0.285750         7.7756 
 187   0.0000       0.288892         7.8612 
 188   0.0000       0.291888         7.9427 
 189   0.0000       0.293706         7.9921 
 190   0.0000       0.295429         8.0390 
 191   0.0000       0.307839         8.3767 
 192   0.0000       0.309097         8.4110 
 193   0.0000       0.312911         8.5147 
 194   0.0000       0.314588         8.5604 
 195   0.0000       0.319508         8.6942 
 196   0.0000       0.321489         8.7482 
 197   0.0000       0.323938         8.8148 
 198   0.0000       0.329693         8.9714 
 199   0.0000       0.335596         9.1320 
 200   0.0000       0.340385         9.2624 
 201   0.0000       0.343708         9.3528 
 202   0.0000       0.344889         9.3849 
 203   0.0000       0.347797         9.4640 
 204   0.0000       0.348723         9.4892 
 205   0.0000       0.351218         9.5571 
 206   0.0000       0.357390         9.7251 
 207   0.0000       0.362679         9.8690 
 208   0.0000       0.362924         9.8757 
 209   0.0000       0.368458        10.0263 
 210   0.0000       0.371744        10.1157 
 211   0.0000       0.373071        10.1518 
 212   0.0000       0.374879        10.2010 
 213   0.0000       0.379562        10.3284 
 214   0.0000       0.381566        10.3829 
 215   0.0000       0.383997        10.4491 
 216   0.0000       0.389272        10.5926 
 217   0.0000       0.392458        10.6793 
 218   0.0000       0.397979        10.8296 
 219   0.0000       0.401308        10.9201 
 220   0.0000       0.405586        11.0366 
 221   0.0000       0.408532        11.1167 
 222   0.0000       0.412753        11.2316 
 223   0.0000       0.415697        11.3117 
 224   0.0000       0.417934        11.3726 
 225   0.0000       0.420014        11.4292 
 226   0.0000       0.422187        11.4883 
 227   0.0000       0.427511        11.6332 
 228   0.0000       0.430347        11.7103 
 229   0.0000       0.432585        11.7712 
 230   0.0000       0.434629        11.8269 
 231   0.0000       0.440565        11.9884 
 232   0.0000       0.443842        12.0775 
 233   0.0000       0.451392        12.2830 
 234   0.0000       0.454639        12.3713 
 235   0.0000       0.461123        12.5478 
 236   0.0000       0.467528        12.7221 
 237   0.0000       0.472459        12.8563 
 238   0.0000       0.475209        12.9311 
 239   0.0000       0.480917        13.0864 
 240   0.0000       0.485777        13.2187 
 241   0.0000       0.491240        13.3673 
 242   0.0000       0.494640        13.4598 
 243   0.0000       0.499850        13.6016 
 244   0.0000       0.509917        13.8756 
 245   0.0000       0.513324        13.9682 
 246   0.0000       0.517377        14.0785 
 247   0.0000       0.521683        14.1957 
 248   0.0000       0.528984        14.3944 
 249   0.0000       0.536594        14.6015 
 250   0.0000       0.537392        14.6232 
 251   0.0000       0.542018        14.7491 
 252   0.0000       0.548602        14.9282 
 253   0.0000       0.549883        14.9631 
 254   0.0000       0.559532        15.2256 
 255   0.0000       0.564903        15.3718 
 256   0.0000       0.566406        15.4127 
 257   0.0000       0.573926        15.6173 
 258   0.0000       0.578277        15.7357 
 259   0.0000       0.588166        16.0048 
 260   0.0000       0.588702        16.0194 
 261   0.0000       0.591163        16.0864 
 262   0.0000       0.597795        16.2668 
 263   0.0000       0.602777        16.4024 
 264   0.0000       0.608122        16.5478 
 265   0.0000       0.613350        16.6901 
 266   0.0000       0.621606        16.9147 
 267   0.0000       0.626426        17.0459 
 268   0.0000       0.632141        17.2014 
 269   0.0000       0.635323        17.2880 
 270   0.0000       0.644408        17.5352 
 271   0.0000       0.650279        17.6950 
 272   0.0000       0.654774        17.8173 
 273   0.0000       0.659879        17.9562 
 274   0.0000       0.662885        18.0380 
 275   0.0000       0.670664        18.2497 
 276   0.0000       0.672315        18.2946 
 277   0.0000       0.676113        18.3980 
 278   0.0000       0.677939        18.4477 
 279   0.0000       0.681850        18.5541 
 280   0.0000       0.685104        18.6426 
 281   0.0000       0.689933        18.7740 
 282   0.0000       0.693432        18.8692 
 283   0.0000       0.703437        19.1415 
 284   0.0000       0.710034        19.3210 
 285   0.0000       0.714589        19.4450 
 286   0.0000       0.722584        19.6625 
 287   0.0000       0.728477        19.8229 
 288   0.0000       0.739369        20.1193 
 289   0.0000       0.745312        20.2810 
 290   0.0000       0.751059        20.4374 
 291   0.0000       0.756860        20.5952 
 292   0.0000       0.759257        20.6604 
 293   0.0000       0.762733        20.7550 
 294   0.0000       0.771124        20.9833 
 295   0.0000       0.776708        21.1353 
 296   0.0000       0.790757        21.5176 
 297   0.0000       0.796235        21.6667 
 298   0.0000       0.801760        21.8170 
 299   0.0000       0.804470        21.8907 
 300   0.0000       0.809961        22.0402 
 301   0.0000       0.813764        22.1436 
 302   0.0000       0.818122        22.2622 
 303   0.0000       0.828401        22.5419 
 304   0.0000       0.832193        22.6451 
 305   0.0000       0.835207        22.7271 
 306   0.0000       0.839098        22.8330 
 307   0.0000       0.847875        23.0719 
 308   0.0000       0.862083        23.4585 
 309   0.0000       0.865939        23.5634 
 310   0.0000       0.875950        23.8358 
 311   0.0000       0.888620        24.1806 
 312   0.0000       0.893911        24.3246 
 313   0.0000       0.897372        24.4187 
 314   0.0000       0.902273        24.5521 
 315   0.0000       0.905318        24.6350 
 316   0.0000       0.913625        24.8610 
 317   0.0000       0.926439        25.2097 
 318   0.0000       0.929919        25.3044 
 319   0.0000       0.936001        25.4699 
 320   0.0000       0.943029        25.6611 
 321   0.0000       0.946391        25.7526 
 322   0.0000       0.958695        26.0874 
 323   0.0000       0.963622        26.2215 
 324   0.0000       0.967311        26.3219 
 325   0.0000       0.980561        26.6824 
 326   0.0000       0.983091        26.7513 
 327   0.0000       0.988375        26.8950 
 328   0.0000       0.994213        27.0539 
 329   0.0000       1.002706        27.2850 
 330   0.0000       1.003865        27.3165 
 331   0.0000       1.007465        27.4145 
 332   0.0000       1.010458        27.4960 
 333   0.0000       1.023627        27.8543 
 334   0.0000       1.029629        28.0176 
 335   0.0000       1.032888        28.1063 
 336   0.0000       1.044542        28.4234 
 337   0.0000       1.052421        28.6378 
 338   0.0000       1.058896        28.8140 
 339   0.0000       1.065729        29.0000 
 340   0.0000       1.080462        29.4009 
 341   0.0000       1.081732        29.4354 
 342   0.0000       1.086477        29.5645 
 343   0.0000       1.093113        29.7451 
 344   0.0000       1.102614        30.0037 
 345   0.0000       1.104760        30.0621 
 346   0.0000       1.112230        30.2653 
 347   0.0000       1.119005        30.4497 
 348   0.0000       1.123580        30.5742 
 349   0.0000       1.124895        30.6100 
 350   0.0000       1.132257        30.8103 
 351   0.0000       1.134576        30.8734 
 352   0.0000       1.138750        30.9870 
 353   0.0000       1.146529        31.1986 
 354   0.0000       1.149679        31.2844 
 355   0.0000       1.153651        31.3924 
 356   0.0000       1.158360        31.5206 
 357   0.0000       1.170652        31.8551 
 358   0.0000       1.173746        31.9393 
 359   0.0000       1.177173        32.0325 
 360   0.0000       1.182694        32.1827 
 361   0.0000       1.188994        32.3542 
 362   0.0000       1.195615        32.5344 
 363   0.0000       1.199899        32.6509 
 364   0.0000       1.206924        32.8421 
 365   0.0000       1.208649        32.8890 
 366   0.0000       1.218810        33.1655 
 367   0.0000       1.231686        33.5159 
 368   0.0000       1.239958        33.7410 
 369   0.0000       1.246627        33.9224 
 370   0.0000       1.266613        34.4663 
 371   0.0000       1.272875        34.6367 
 372   0.0000       1.285500        34.9802 
 373   0.0000       1.297210        35.2989 
 374   0.0000       1.304303        35.4919 
 375   0.0000       1.308151        35.5966 
 376   0.0000       1.315520        35.7971 
 377   0.0000       1.326703        36.1014 
 378   0.0000       1.331382        36.2287 
 379   0.0000       1.337155        36.3858 
 380   0.0000       1.356230        36.9049 
 381   0.0000       1.357658        36.9438 
 382   0.0000       1.366587        37.1867 
 383   0.0000       1.368127        37.2286 
 384   0.0000       1.369412        37.2636 
 385   0.0000       1.374872        37.4122 
 386   0.0000       1.378581        37.5131 
 387   0.0000       1.382586        37.6221 
 388   0.0000       1.400894        38.1203 
 389   0.0000       1.402621        38.1673 
 390   0.0000       1.404671        38.2230 
 391   0.0000       1.413751        38.4701 
 392   0.0000       1.418471        38.5986 
 393   0.0000       1.424935        38.7745 
 394   0.0000       1.433345        39.0033 
 395   0.0000       1.439441        39.1692 
 396   0.0000       1.445635        39.3377 
 397   0.0000       1.446150        39.3517 
 398   0.0000       1.453905        39.5628 
 399   0.0000       1.461234        39.7622 
 400   0.0000       1.464080        39.8397 
 401   0.0000       1.468132        39.9499 
 402   0.0000       1.475497        40.1503 
 403   0.0000       1.477448        40.2034 
 404   0.0000       1.484431        40.3934 
 405   0.0000       1.490674        40.5633 
 406   0.0000       1.496864        40.7318 
 407   0.0000       1.500674        40.8354 
 408   0.0000       1.504345        40.9353 
 409   0.0000       1.506946        41.0061 
 410   0.0000       1.511026        41.1171 
 411   0.0000       1.516131        41.2560 
 412   0.0000       1.521955        41.4145 
 413   0.0000       1.532090        41.6903 
 414   0.0000       1.539554        41.8934 
 415   0.0000       1.541844        41.9557 
 416   0.0000       1.547089        42.0984 
 417   0.0000       1.559311        42.4310 
 418   0.0000       1.561301        42.4852 
 419   0.0000       1.567136        42.6440 
 420   0.0000       1.569155        42.6989 
 421   0.0000       1.574460        42.8432 
 422   0.0000       1.576470        42.8979 
 423   0.0000       1.581323        43.0300 
 424   0.0000       1.585724        43.1497 
 425   0.0000       1.587730        43.2043 
 426   0.0000       1.597567        43.4720 
 427   0.0000       1.602156        43.5969 
 428   0.0000       1.609950        43.8090 
 429   0.0000       1.612312        43.8732 
 430   0.0000       1.618841        44.0509 
 431   0.0000       1.629537        44.3420 
 432   0.0000       1.630491        44.3679 
 433   0.0000       1.637098        44.5477 
 434   0.0000       1.648245        44.8510 
 435   0.0000       1.651846        44.9490 
 436   0.0000       1.659550        45.1587 
 437   0.0000       1.662085        45.2276 
 438   0.0000       1.673087        45.5270 
 439   0.0000       1.675648        45.5967 
 440   0.0000       1.685620        45.8681 
 441   0.0000       1.689030        45.9608 
 442   0.0000       1.693575        46.0845 
 443   0.0000       1.703761        46.3617 
 444   0.0000       1.713672        46.6314 
 445   0.0000       1.723705        46.9044 
 446   0.0000       1.729834        47.0712 
 447   0.0000       1.734047        47.1858 
 448   0.0000       1.742434        47.4140 
 449   0.0000       1.746040        47.5122 
 450   0.0000       1.750960        47.6460 
 451   0.0000       1.755172        47.7606 
 452   0.0000       1.770348        48.1736 
 453   0.0000       1.781875        48.4873 
 454   0.0000       1.787724        48.6465 
 455   0.0000       1.801034        49.0086 
 456   0.0000       1.804161        49.0937 
 457   0.0000       1.813499        49.3478 
 458   0.0000       1.825770        49.6817 
 459   0.0000       1.830319        49.8055 
 460   0.0000       1.843700        50.1696 
 461   0.0000       1.845318        50.2137 
 462   0.0000       1.858186        50.5638 
 463   0.0000       1.869187        50.8632 
 464   0.0000       1.873498        50.9805 
 465   0.0000       1.877959        51.1019 
 466   0.0000       1.889114        51.4054 
 467   0.0000       1.895446        51.5777 
 468   0.0000       1.910551        51.9887 
 469   0.0000       1.917001        52.1642 
 470   0.0000       1.920749        52.2662 
 471   0.0000       1.923139        52.3313 
 472   0.0000       1.937554        52.7235 
 473   0.0000       1.943782        52.8930 
 474   0.0000       1.951402        53.1004 
 475   0.0000       1.960996        53.3614 
 476   0.0000       1.966644        53.5151 
 477   0.0000       1.970078        53.6085 
 478   0.0000       1.979390        53.8619 
 479   0.0000       1.982189        53.9381 
 480   0.0000       1.992284        54.2128 
 481   0.0000       1.995525        54.3010 
 482   0.0000       1.999772        54.4166 
 483   0.0000       2.008268        54.6478 
 484   0.0000       2.015917        54.8559 
 485   0.0000       2.018525        54.9269 
 486   0.0000       2.030932        55.2645 
 487   0.0000       2.032427        55.3051 
 488   0.0000       2.046682        55.6931 
 489   0.0000       2.053736        55.8850 
 490   0.0000       2.057678        55.9923 
 491   0.0000       2.065720        56.2111 
 492   0.0000       2.069993        56.3274 
 493   0.0000       2.071424        56.3663 
 494   0.0000       2.091776        56.9201 
 495   0.0000       2.107311        57.3428 
 496   0.0000       2.112571        57.4860 
 497   0.0000       2.113433        57.5094 
 498   0.0000       2.119013        57.6613 
 499   0.0000       2.128957        57.9319 
 500   0.0000       2.131148        57.9915 
 501   0.0000       2.139834        58.2278 
 502   0.0000       2.148359        58.4598 
 503   0.0000       2.157457        58.7074 
 504   0.0000       2.178259        59.2734 
 505   0.0000       2.179750        59.3140 
 506   0.0000       2.190669        59.6111 
 507   0.0000       2.199727        59.8576 
 508   0.0000       2.211183        60.1694 
 509   0.0000       2.224625        60.5351 
 510   0.0000       2.232492        60.7492 
 511   0.0000       2.245632        61.1068 
 512   0.0000       2.251067        61.2547 
 513   0.0000       2.253500        61.3209 
 514   0.0000       2.258020        61.4439 
 515   0.0000       2.276979        61.9597 
 516   0.0000       2.281930        62.0945 
 517   0.0000       2.291201        62.3467 
 518   0.0000       2.302413        62.6518 
 519   0.0000       2.308523        62.8181 
 520   0.0000       2.313680        62.9584 
 521   0.0000       2.324122        63.2426 
 522   0.0000       2.335668        63.5567 
 523   0.0000       2.342724        63.7488 
 524   0.0000       2.357611        64.1539 
 525   0.0000       2.368617        64.4533 
 526   0.0000       2.372837        64.5682 
 527   0.0000       2.377464        64.6941 
 528   0.0000       2.387829        64.9761 
 529   0.0000       2.394671        65.1623 
 530   0.0000       2.405642        65.4609 
 531   0.0000       2.410410        65.5906 
 532   0.0000       2.418833        65.8198 
 533   0.0000       2.423271        65.9406 
 534   0.0000       2.431117        66.1541 
 535   0.0000       2.434693        66.2514 
 536   0.0000       2.449732        66.6606 
 537   0.0000       2.451096        66.6977 
 538   0.0000       2.453912        66.7744 
 539   0.0000       2.458578        66.9013 
 540   0.0000       2.464534        67.0634 
 541   0.0000       2.470730        67.2320 
 542   0.0000       2.476375        67.3856 
 543   0.0000       2.481035        67.5124 
 544   0.0000       2.484253        67.6000 
 545   0.0000       2.491273        67.7910 
 546   0.0000       2.498726        67.9938 
 547   0.0000       2.502662        68.1009 
 548   0.0000       2.512492        68.3684 
 549   0.0000       2.517395        68.5018 
 550   0.0000       2.522026        68.6278 
 551   0.0000       2.525540        68.7234 
 552   0.0000       2.526301        68.7441 
 553   0.0000       2.532796        68.9209 
 554   0.0000       2.537629        69.0524 
 555   0.0000       2.548511        69.3485 
 556   0.0000       2.550918        69.4140 
 557   0.0000       2.552849        69.4666 
 558   0.0000       2.559375        69.6441 
 559   0.0000       2.564502        69.7836 
 560   0.0000       2.568264        69.8860 
 561   0.0000       2.569106        69.9089 
 562   0.0000       2.580428        70.2170 
 563   0.0000       2.584031        70.3151 
 564   0.0000       2.585891        70.3657 
 565   0.0000       2.589735        70.4703 
 566   0.0000       2.591358        70.5144 
 567   0.0000       2.599419        70.7338 
 568   0.0000       2.604148        70.8625 
 569   0.0000       2.613025        71.1040 
 570   0.0000       2.618128        71.2429 
 571   0.0000       2.626143        71.4610 
 572   0.0000       2.634789        71.6963 
 573   0.0000       2.638879        71.8075 
 574   0.0000       2.643381        71.9300 
 575   0.0000       2.658804        72.3497 
 576   0.0000       2.660337        72.3914 
 577   0.0000       2.665417        72.5297 
 578   0.0000       2.667925        72.5979 
 579   0.0000       2.672061        72.7105 
 580   0.0000       2.675627        72.8075 
 581   0.0000       2.677023        72.8455 
 582   0.0000       2.688927        73.1694 
 583   0.0000       2.694488        73.3207 
 584   0.0000       2.700934        73.4961 
 585   0.0000       2.707271        73.6686 
 586   0.0000       2.712204        73.8028 
 587   0.0000       2.717358        73.9431 
 588   0.0000       2.720880        74.0389 
 589   0.0000       2.725637        74.1683 
 590   0.0000       2.733283        74.3764 
 591   0.0000       2.741676        74.6048 
 592   0.0000       2.744448        74.6802 
 593   0.0000       2.746782        74.7437 
 594   0.0000       2.758951        75.0749 
 595   0.0000       2.764174        75.2170 
 596   0.0000       2.765023        75.2401 
 597   0.0000       2.770822        75.3979 
 598   0.0000       2.784575        75.7721 
 599   0.0000       2.788550        75.8803 
 600   0.0000       2.797237        76.1167 
 601   0.0000       2.806321        76.3639 
 602   0.0000       2.810969        76.4903 
 603   0.0000       2.814686        76.5915 
 604   0.0000       2.820716        76.7556 
 605   0.0000       2.826715        76.9188 
 606   0.0000       2.827203        76.9321 
 607   0.0000       2.831989        77.0623 
 608   0.0000       2.838138        77.2297 
 609   0.0000       2.846738        77.4637 
 610   0.0000       2.864259        77.9404 
 611   0.0000       2.865569        77.9761 
 612   0.0000       2.874326        78.2144 
 613   0.0000       2.882511        78.4371 
 614   0.0000       2.888681        78.6050 
 615   0.0000       2.897196        78.8367 
 616   0.0000       2.906809        79.0983 
 617   0.0000       2.914856        79.3173 
 618   0.0000       2.920168        79.4618 
 619   0.0000       2.931454        79.7689 
 620   0.0000       2.937146        79.9238 
 621   0.0000       2.945231        80.1438 
 622   0.0000       2.953127        80.3587 
 623   0.0000       2.963926        80.6525 
 624   0.0000       2.968582        80.7792 
 625   0.0000       2.971336        80.8542 
 626   0.0000       2.980394        81.1006 
 627   0.0000       2.982936        81.1698 
 628   0.0000       2.985918        81.2510 
 629   0.0000       2.988904        81.3322 
 630   0.0000       2.997035        81.5535 
 631   0.0000       2.998634        81.5970 
 632   0.0000       3.002588        81.7046 
 633   0.0000       3.006041        81.7985 
 634   0.0000       3.013618        82.0047 
 635   0.0000       3.013781        82.0092 
 636   0.0000       3.019352        82.1607 
 637   0.0000       3.024808        82.3092 
 638   0.0000       3.030690        82.4693 
 639   0.0000       3.037003        82.6411 
 640   0.0000       3.039765        82.7162 
 641   0.0000       3.041330        82.7588 
 642   0.0000       3.053470        83.0891 
 643   0.0000       3.058687        83.2311 
 644   0.0000       3.063228        83.3547 
 645   0.0000       3.070272        83.5464 
 646   0.0000       3.075210        83.6807 
 647   0.0000       3.080068        83.8129 
 648   0.0000       3.092072        84.1396 
 649   0.0000       3.096772        84.2674 
 650   0.0000       3.102804        84.4316 
 651   0.0000       3.111096        84.6572 
 652   0.0000       3.119425        84.8839 
 653   0.0000       3.126399        85.0736 
 654   0.0000       3.130285        85.1794 
 655   0.0000       3.132499        85.2396 
 656   0.0000       3.137691        85.3809 
 657   0.0000       3.147444        85.6463 
 658   0.0000       3.150763        85.7366 
 659   0.0000       3.152547        85.7852 
 660   0.0000       3.157690        85.9251 
 661   0.0000       3.160438        85.9999 
 662   0.0000       3.165734        86.1440 
 663   0.0000       3.169107        86.2358 
 664   0.0000       3.176354        86.4330 
 665   0.0000       3.183849        86.6369 
 666   0.0000       3.189144        86.7810 
 667   0.0000       3.201094        87.1062 
 668   0.0000       3.205511        87.2264 
 669   0.0000       3.208862        87.3176 
 670   0.0000       3.220297        87.6287 
 671   0.0000       3.222602        87.6915 
 672   0.0000       3.228487        87.8516 
 673   0.0000       3.230067        87.8946 
 674   0.0000       3.237808        88.1052 
 675   0.0000       3.248128        88.3861 
 676   0.0000       3.255628        88.5901 
 677   0.0000       3.258431        88.6664 
 678   0.0000       3.263462        88.8033 
 679   0.0000       3.265544        88.8600 
 680   0.0000       3.274565        89.1055 
 681   0.0000       3.278078        89.2010 
 682   0.0000       3.284498        89.3757 
 683   0.0000       3.286742        89.4368 
 684   0.0000       3.288916        89.4960 
 685   0.0000       3.294604        89.6507 
 686   0.0000       3.298215        89.7490 
 687   0.0000       3.305359        89.9434 
 688   0.0000       3.309012        90.0428 
 689   0.0000       3.311649        90.1145 
 690   0.0000       3.317679        90.2786 
 691   0.0000       3.324536        90.4652 
 692   0.0000       3.331216        90.6470 
 693   0.0000       3.334991        90.7497 
 694   0.0000       3.339736        90.8788 
 695   0.0000       3.354215        91.2728 
 696   0.0000       3.359473        91.4159 
 697   0.0000       3.365430        91.5780 
 698   0.0000       3.370447        91.7145 
 699   0.0000       3.371983        91.7563 
 700   0.0000       3.379489        91.9606 
 701   0.0000       3.382168        92.0335 
 702   0.0000       3.387512        92.1789 
 703   0.0000       3.395288        92.3905 
 704   0.0000       3.399140        92.4953 
 705   0.0000       3.406767        92.7028 
 706   0.0000       3.412116        92.8484 
 707   0.0000       3.416010        92.9544 
 708   0.0000       3.420804        93.0848 
 709   0.0000       3.434497        93.4574 
 710   0.0000       3.437120        93.5288 
 711   0.0000       3.456665        94.0606 
 712   0.0000       3.470280        94.4311 
 713   0.0000       3.478147        94.6452 
 714   0.0000       3.481481        94.7359 
 715   0.0000       3.492939        95.0477 
 716   0.0000       3.494510        95.0905 
 717   0.0000       3.516607        95.6917 
 718   0.0000       3.528471        96.0146 
 719   0.0000       3.545247        96.4711 
 720   0.0000       3.551342        96.6369 
 721   0.0000       3.556305        96.7720 
 722   0.0000       3.564623        96.9983 
 723   0.0000       3.572892        97.2233 
 724   0.0000       3.580244        97.4234 
 725   0.0000       3.586387        97.5906 
 726   0.0000       3.599478        97.9468 
 727   0.0000       3.615514        98.3831 
[...]
      f-3     :     0.000001
 12 H s       :     0.000107  s :     0.000107
      pz      :     0.000012  p :     0.000027
      px      :     0.000010
      py      :     0.000006
 13 H s       :     0.000028  s :     0.000028
      pz      :    -0.000009  p :    -0.000023
      px      :    -0.000010
      py      :    -0.000004
 14 H s       :     0.000080  s :     0.000080
      pz      :     0.000007  p :     0.000022
      px      :     0.000007
      py      :     0.000007
 15 C s       :     0.001053  s :     0.001053
      pz      :     0.005338  p :     0.005546
      px      :     0.000211
      py      :    -0.000003
      dz2     :    -0.000715  d :    -0.001689
      dxz     :    -0.001109
      dyz     :    -0.000053
      dx2y2   :     0.000025
      dxy     :     0.000163
      f0      :    -0.000095  f :    -0.000093
      f+1     :    -0.000008
      f-1     :    -0.000001
      f+2     :    -0.000008
      f-2     :    -0.000017
      f+3     :     0.000006
      f-3     :     0.000030
 16 C s       :     0.000652  s :     0.000652
      pz      :     0.001177  p :     0.004770
      px      :     0.001023
      py      :     0.002571
      dz2     :    -0.002698  d :    -0.003690
      dxz     :     0.000125
      dyz     :    -0.001195
      dx2y2   :    -0.000410
      dxy     :     0.000488
      f0      :    -0.000186  f :    -0.000551
      f+1     :    -0.000158
      f-1     :    -0.000041
      f+2     :    -0.000090
      f-2     :    -0.000054
      f+3     :    -0.000019
      f-3     :    -0.000003
 17 C s       :    -0.000199  s :    -0.000199
      pz      :    -0.001173  p :    -0.004397
      px      :    -0.000196
      py      :    -0.003028
      dz2     :     0.000135  d :     0.000748
      dxz     :     0.000067
      dyz     :     0.000433
      dx2y2   :     0.000052
      dxy     :     0.000061
      f0      :     0.000015  f :     0.000056
      f+1     :    -0.000005
      f-1     :     0.000030
      f+2     :     0.000008
      f-2     :     0.000003
      f+3     :     0.000003
      f-3     :     0.000003
 18 C s       :    -0.000108  s :    -0.000108
      pz      :    -0.000273  p :     0.000430
      px      :     0.000031
      py      :     0.000671
      dz2     :     0.000310  d :     0.000211
      dxz     :     0.000004
      dyz     :    -0.000200
      dx2y2   :     0.000085
      dxy     :     0.000013
      f0      :     0.000018  f :     0.000050
      f+1     :     0.000037
      f-1     :    -0.000009
      f+2     :     0.000012
      f-2     :    -0.000011
      f+3     :     0.000004
      f-3     :    -0.000000
 19 C s       :    -0.000037  s :    -0.000037
      pz      :    -0.000019  p :    -0.001771
      px      :    -0.000106
      py      :    -0.001645
      dz2     :     0.000039  d :     0.000292
      dxz     :     0.000014
      dyz     :    -0.000001
      dx2y2   :     0.000045
      dxy     :     0.000196
      f0      :     0.000002  f :     0.000039
      f+1     :     0.000004
      f-1     :     0.000006
      f+2     :     0.000003
      f-2     :     0.000001
      f+3     :     0.000006
      f-3     :     0.000016
 20 H s       :     0.000012  s :     0.000012
      pz      :     0.000011  p :     0.000022
      px      :    -0.000010
      py      :     0.000022
 21 C s       :     0.000053  s :     0.000053
      pz      :    -0.000156  p :     0.001548
      px      :     0.000098
      py      :     0.001606
      dz2     :    -0.000167  d :    -0.000635
      dxz     :    -0.000029
      dyz     :    -0.000150
      dx2y2   :    -0.000028
      dxy     :    -0.000261
      f0      :    -0.000004  f :    -0.000065
      f+1     :    -0.000007
      f-1     :    -0.000012
      f+2     :    -0.000004
      f-2     :    -0.000027
      f+3     :    -0.000005
      f-3     :    -0.000006
 22 H s       :     0.000210  s :     0.000210
      pz      :    -0.000021  p :    -0.000114
      px      :    -0.000019
      py      :    -0.000074
 23 H s       :     0.000097  s :     0.000097
      pz      :    -0.000005  p :    -0.000040
      px      :    -0.000004
      py      :    -0.000031
 24 H s       :    -0.000259  s :    -0.000259
      pz      :     0.000012  p :     0.000042
      px      :     0.000000
      py      :     0.000030
 25 C s       :     0.001591  s :     0.001591
      pz      :     0.001056  p :     0.024817
      px      :     0.001901
      py      :     0.021860
      dz2     :     0.000022  d :    -0.001404
      dxz     :    -0.003691
      dyz     :     0.001817
      dx2y2   :     0.000073
      dxy     :     0.000375
      f0      :    -0.000247  f :    -0.000514
      f+1     :     0.000031
      f-1     :     0.000143
      f+2     :    -0.000235
      f-2     :     0.000099
      f+3     :    -0.000064
      f-3     :    -0.000241
 26 C s       :     0.001152  s :     0.001152
      pz      :     0.000614  p :     0.014936
      px      :     0.002528
      py      :     0.011794
      dz2     :    -0.000302  d :     0.001938
      dxz     :    -0.000074
      dyz     :     0.001582
      dx2y2   :    -0.000029
      dxy     :     0.000760
      f0      :    -0.000133  f :     0.000318
      f+1     :     0.000035
      f-1     :     0.000169
      f+2     :    -0.000088
      f-2     :     0.000220
      f+3     :    -0.000010
      f-3     :     0.000126
 27 C s       :     0.001097  s :     0.001097
      pz      :     0.001013  p :     0.019311
      px      :     0.001808
      py      :     0.016491
      dz2     :    -0.000798  d :     0.000080
      dxz     :    -0.000163
      dyz     :     0.000130
      dx2y2   :    -0.000621
      dxy     :     0.001531
      f0      :    -0.000158  f :    -0.000203
      f+1     :    -0.000091
      f-1     :     0.000038
      f+2     :    -0.000107
      f-2     :     0.000122
      f+3     :    -0.000027
      f-3     :     0.000020
 28 C s       :     0.000102  s :     0.000102
      pz      :     0.000043  p :     0.011435
      px      :    -0.000686
      py      :     0.012079
      dz2     :     0.000082  d :     0.003206
      dxz     :     0.000049
      dyz     :     0.001776
      dx2y2   :    -0.000149
      dxy     :     0.001449
      f0      :    -0.000006  f :     0.000325
      f+1     :    -0.000018
      f-1     :     0.000156
      f+2     :    -0.000009
      f-2     :     0.000062
      f+3     :    -0.000010
      f-3     :     0.000151
 29 H s       :    -0.000636  s :    -0.000636
      pz      :     0.000113  p :     0.000505
      px      :     0.000023
      py      :     0.000370
 30 C s       :     0.000236  s :     0.000236
      pz      :     0.000039  p :     0.012771
      px      :     0.000010
      py      :     0.012723
      dz2     :     0.000048  d :     0.003082
      dxz     :     0.000215
      dyz     :     0.001044
      dx2y2   :    -0.000054
      dxy     :     0.001829
      f0      :    -0.000024  f :     0.000287
      f+1     :    -0.000022
      f-1     :     0.000189
      f+2     :    -0.000014
      f-2     :    -0.000001
      f+3     :    -0.000012
      f-3     :     0.000171
 31 H s       :    -0.000205  s :    -0.000205
      pz      :     0.000024  p :     0.000351
      px      :     0.000023
      py      :     0.000304
 32 H s       :    -0.000618  s :    -0.000618
      pz      :     0.000009  p :     0.000377
      px      :     0.000040
      py      :     0.000327
 33 H s       :    -0.002691  s :    -0.002691
      pz      :     0.000113  p :     0.000661
      px      :     0.000074
      py      :     0.000474
 34 C s       :    -0.010414  s :    -0.010414
      pz      :    -0.030995  p :    -0.131256
      px      :    -0.004714
      py      :    -0.095548
      dz2     :     0.004970  d :     0.031864
      dxz     :     0.002914
      dyz     :     0.007360
      dx2y2   :     0.004904
      dxy     :     0.011716
      f0      :     0.000167  f :     0.003655
      f+1     :     0.000069
      f-1     :     0.000910
      f+2     :     0.000301
      f-2     :     0.000568
      f+3     :     0.001327
      f-3     :     0.000313
 35 H s       :     0.007818  s :     0.007818
      pz      :    -0.000626  p :    -0.003090
      px      :    -0.000383
      py      :    -0.002081
 36 H s       :     0.011789  s :     0.011789
      pz      :    -0.000542  p :    -0.003114
      px      :    -0.000600
      py      :    -0.001971
 37 C s       :     0.002010  s :     0.002010
      pz      :     0.001823  p :     0.008225
      px      :     0.001418
      py      :     0.004984
      dz2     :    -0.004076  d :    -0.009156
      dxz     :    -0.000335
      dyz     :    -0.000228
      dx2y2   :    -0.004436
      dxy     :    -0.000082
      f0      :    -0.000145  f :    -0.001284
      f+1     :    -0.000277
      f-1     :    -0.000282
      f+2     :    -0.000249
      f-2     :    -0.000106
      f+3     :    -0.000119
      f-3     :    -0.000106
 38 C s       :    -0.001656  s :    -0.001656
      pz      :    -0.000083  p :    -0.004449
      px      :    -0.000044
      py      :    -0.004322
      dz2     :     0.000150  d :    -0.000406
      dxz     :    -0.000012
      dyz     :    -0.000373
      dx2y2   :    -0.000037
      dxy     :    -0.000133
      f0      :     0.000001  f :     0.000050
      f+1     :    -0.000001
      f-1     :     0.000022
      f+2     :    -0.000001
      f-2     :     0.000008
      f+3     :     0.000006
      f-3     :     0.000015
 39 H s       :    -0.001972  s :    -0.001972
      pz      :     0.000169  p :     0.000235
      px      :     0.000001
      py      :     0.000065
 40 H s       :    -0.000308  s :    -0.000308
      pz      :     0.000041  p :     0.000199
      px      :     0.000109
      py      :     0.000050
 41 H s       :     0.000010  s :     0.000010
      pz      :     0.000002  p :    -0.000079
      px      :    -0.000039
      py      :    -0.000042
 42 H s       :    -0.001521  s :    -0.001521
      pz      :     0.000018  p :    -0.000026
      px      :     0.000008
      py      :    -0.000051
 43 H s       :    -0.000033  s :    -0.000033
      pz      :    -0.000044  p :    -0.000093
      px      :     0.000001
      py      :    -0.000049


                      *****************************
                      * MAYER POPULATION ANALYSIS *
                      *****************************

  NA   - Mulliken gross atomic population
  ZA   - Total nuclear charge
  QA   - Mulliken gross atomic charge
  VA   - Mayer's total valence
  BVA  - Mayer's bonded valence
  FA   - Mayer's free valence

  ATOM       NA         ZA         QA         VA         BVA        FA
  0 Cr    23.5068    24.0000     0.4932     6.2394     3.5424     2.6970
  1 S     15.9927    16.0000     0.0073     2.7709     2.7665     0.0043
  2 N      7.1555     7.0000    -0.1555     3.2449     3.2368     0.0081
  3 N      7.1872     7.0000    -0.1872     3.1826     3.1790     0.0036
  4 C      5.8693     6.0000     0.1307     3.5814     3.5812     0.0003
  5 C      6.1750     6.0000    -0.1750     3.8625     3.8625     0.0000
  6 C      6.1817     6.0000    -0.1817     3.9131     3.9131     0.0000
  7 C      6.1561     6.0000    -0.1561     3.9180     3.9180     0.0000
  8 H      0.8116     1.0000     0.1884     0.9517     0.9517     0.0000
  9 C      6.1317     6.0000    -0.1317     3.9075     3.9075     0.0000
 10 H      0.8418     1.0000     0.1582     0.9659     0.9659     0.0000
 11 C      6.1104     6.0000    -0.1104     3.8530     3.8530    -0.0000
 12 H      0.8470     1.0000     0.1530     0.9633     0.9633     0.0000
 13 H      0.8463     1.0000     0.1537     0.9604     0.9604     0.0000
 14 H      0.8456     1.0000     0.1544     0.9612     0.9612     0.0000
 15 C      6.0036     6.0000    -0.0036     3.7682     3.7680     0.0002
 16 C      5.6947     6.0000     0.3053     3.6662     3.6661     0.0001
 17 C      6.2363     6.0000    -0.2363     3.9494     3.9494     0.0000
 18 C      6.1100     6.0000    -0.1100     3.8385     3.8385     0.0000
 19 C      6.1411     6.0000    -0.1411     3.8920     3.8920     0.0000
 20 H      0.8380     1.0000     0.1620     0.9617     0.9617     0.0000
 21 C      6.1181     6.0000    -0.1181     3.8733     3.8733     0.0000
 22 H      0.8502     1.0000     0.1498     0.9762     0.9762     0.0000
 23 H      0.8435     1.0000     0.1565     0.9609     0.9609     0.0000
 24 H      0.8435     1.0000     0.1565     0.9612     0.9612     0.0000
 25 C      6.0212     6.0000    -0.0212     4.0525     4.0516     0.0009
 26 C      5.7896     6.0000     0.2104     3.6573     3.6567     0.0005
 27 C      6.1475     6.0000    -0.1475     3.9622     3.9617     0.0005
 28 C      6.1000     6.0000    -0.1000     3.8162     3.8159     0.0002
 29 H      0.8346     1.0000     0.1654     0.9749     0.9749     0.0000
 30 C      6.2617     6.0000    -0.2617     3.9477     3.9475     0.0003
 31 H      0.8422     1.0000     0.1578     0.9699     0.9699     0.0000
 32 H      0.8381     1.0000     0.1619     0.9668     0.9668     0.0000
 33 H      0.8344     1.0000     0.1656     0.9685     0.9685     0.0000
 34 C      6.3655     6.0000    -0.3655     3.7978     3.7499     0.0479
 35 H      0.8528     1.0000     0.1472     0.9684     0.9681     0.0003
 36 H      0.8359     1.0000     0.1641     0.9464     0.9458     0.0006
 37 C      6.2054     6.0000    -0.2054     3.8632     3.8630     0.0002
 38 C      6.3742     6.0000    -0.3742     3.8770     3.8769     0.0000
 39 H      0.8897     1.0000     0.1103     0.9651     0.9651     0.0000
 40 H      0.8678     1.0000     0.1322     0.9593     0.9593     0.0000
 41 H      0.8667     1.0000     0.1333     0.9685     0.9685     0.0000
 42 H      0.8632     1.0000     0.1368     0.9650     0.9650     0.0000
 43 H      0.8716     1.0000     0.1284     0.9682     0.9682     0.0000

  Mayer bond orders larger than 0.100000
B(  0-Cr,  1-S ) :   0.6930 B(  0-Cr,  2-N ) :   0.7631 B(  0-Cr,  3-N ) :   0.6946 
B(  0-Cr, 34-C ) :   0.9463 B(  1-S ,  4-C ) :   0.8822 B(  1-S , 15-C ) :   0.9192 
B(  2-N , 16-C ) :   1.0056 B(  2-N , 25-C ) :   1.3967 B(  3-N , 26-C ) :   0.9668 
B(  3-N , 27-C ) :   1.3682 B(  4-C ,  5-C ) :   1.2745 B(  4-C ,  6-C ) :   1.3110 
B(  5-C ,  7-C ) :   1.4086 B(  5-C ,  8-H ) :   0.9406 B(  6-C ,  9-C ) :   1.3999 
B(  6-C , 10-H ) :   0.9652 B(  7-C , 11-C ) :   1.3600 B(  7-C , 12-H ) :   0.9694 
B(  9-C , 11-C ) :   1.3786 B(  9-C , 14-H ) :   0.9658 B( 11-C , 13-H ) :   0.9636 
B( 15-C , 16-C ) :   1.2764 B( 15-C , 18-C ) :   1.3241 B( 16-C , 17-C ) :   1.2971 
B( 17-C , 21-C ) :   1.4143 B( 17-C , 22-H ) :   0.9589 B( 18-C , 19-C ) :   1.3926 
B( 18-C , 20-H ) :   0.9618 B( 19-C , 21-C ) :   1.3435 B( 19-C , 23-H ) :   0.9684 
B( 21-C , 24-H ) :   0.9623 B( 25-C , 26-C ) :   1.3742 B( 25-C , 33-H ) :   0.9013 
B( 26-C , 30-C ) :   1.2352 B( 27-C , 28-C ) :   1.3375 B( 27-C , 29-H ) :   0.9518 
B( 28-C , 30-C ) :   1.4503 B( 28-C , 32-H ) :   0.9617 B( 30-C , 31-H ) :   0.9830 
B( 34-C , 35-H ) :   0.9181 B( 34-C , 36-H ) :   0.9240 B( 34-C , 37-C ) :   0.9696 
B( 37-C , 38-C ) :   0.9482 B( 37-C , 39-H ) :   0.9460 B( 37-C , 40-H ) :   0.9552 
B( 38-C , 41-H ) :   0.9675 B( 38-C , 42-H ) :   0.9626 B( 38-C , 43-H ) :   0.9666 


-------
TIMINGS
-------

Total SCF time: 0 days 0 hours 7 min 57 sec 

Total time                  ....     477.207 sec
Sum of individual times     ....     475.358 sec  ( 99.6%)

Fock matrix formation       ....     437.107 sec  ( 91.6%)
  Split-RI-J                ....      82.621 sec  ( 18.9% of F)
  XC integration            ....     272.771 sec  ( 62.4% of F)
    Basis function eval.    ....      57.331 sec  ( 21.0% of XC)
    Density eval.           ....     116.579 sec  ( 42.7% of XC)
    XC-Functional eval.     ....       6.672 sec  (  2.4% of XC)
    XC-Potential eval.      ....      88.265 sec  ( 32.4% of XC)
Diagonalization             ....       5.138 sec  (  1.1%)
Density matrix formation    ....       0.582 sec  (  0.1%)
Population analysis         ....       0.262 sec  (  0.1%)
Initial guess               ....       0.351 sec  (  0.1%)
Orbital Transformation      ....       0.000 sec  (  0.0%)
Orbital Orthonormalization  ....       0.282 sec  (  0.1%)
DIIS solution               ....       1.985 sec  (  0.4%)
Grid generation             ....      29.932 sec  (  6.3%)


-------------------------------------------------------------------------------
                          DFT DISPERSION CORRECTION                            
                                                                               
                              DFTD3 V3.1  Rev 1                                
                          USING Becke-Johnson damping                          
-------------------------------------------------------------------------------
The BP86 functional is recognized
Active option DFTDOPT                   ...         4   

molecular C6(AA) [au] = 28083.116895 


            DFT-D V3
 parameters
 s6 scaling factor         :     1.0000 
 a1 scaling factor         :     0.3946 
 s8 scaling factor         :     3.2822 
 a2 scaling factor         :     4.8516 
 ad hoc parameters k1-k3   :    16.0000     1.3333    -4.0000 

 Edisp/kcal,au: -73.939371539780  -0.117829876215 
 E6   /kcal   : -26.128047371 
 E8   /kcal   : -47.811324169 
 % E8         :  64.662876047 

-------------------------   ----------------
Dispersion correction           -0.117829876
-------------------------   ----------------


-------------------------   --------------------
FINAL SINGLE POINT ENERGY     -2326.885050423226
-------------------------   --------------------


                            ***************************************
                            *     ORCA property calculations      *
                            ***************************************

                                    ---------------------
                                    Active property flags
                                    ---------------------
   (+) Dipole Moment


------------------------------------------------------------------------------
                       ORCA ELECTRIC PROPERTIES CALCULATION
------------------------------------------------------------------------------

Dipole Moment Calculation                       ... on
Quadrupole Moment Calculation                   ... off
Polarizability Calculation                      ... off
GBWName                                         ... IM2_4_Solv.gbw
Electron density file                           ... IM2_4_Solv.scfp
The origin for moment calculation is the CENTER OF MASS  = (-1.880112, -2.645041 -2.480996)

-------------
DIPOLE MOMENT
-------------
                                X             Y             Z
Electronic contribution:      3.53606      22.42447      -2.89967
Nuclear contribution   :     -3.30582     -22.12696       2.89718
                        -----------------------------------------
Total Dipole Moment    :      0.23024       0.29751      -0.00249
                        -----------------------------------------
Magnitude (a.u.)       :      0.37620
Magnitude (Debye)      :      0.95623



--------------------
Rotational spectrum 
--------------------
 
Rotational constants in cm-1:     0.009820     0.005861     0.004517 
Rotational constants in MHz :   294.401084   175.720300   135.411807 

 Dipole components along the rotational axes: 
x,y,z [a.u.] :     0.287462     0.130142    -0.204835 
x,y,z [Debye]:     0.730670     0.330794    -0.520649 

 

Timings for individual modules:

Sum of individual times         ...      477.847 sec (=   7.964 min)
GTO integral calculation        ...        0.626 sec (=   0.010 min)   0.1 %
SCF iterations                  ...      477.220 sec (=   7.954 min)  99.9 %
                             ****ORCA TERMINATED NORMALLY****
TOTAL RUN TIME: 0 days 0 hours 7 minutes 58 seconds 75 msec
